[Molden Format]
[Title]
 Molden file created by orca_2mkl for BaseName=temp

[Atoms] AU
O    1   8          0.0647004434        -1.9872567894         0.0695797163 
C    2   6         -1.6638755150        -3.4367088595        -0.2505134347 
C    3   6         -2.7055190162        -5.0203560515         1.8737050358 
C    4   6         -2.8951889385        -3.7641265889        -2.7966075953 
H    5   1         -1.8475493363        -4.4636465119         3.6577539048 
H    6   1         -4.7614333355        -4.8419564558         1.9852593489 
H    7   1         -2.2976821014        -7.0158539366         1.5114842201 
H    8   1         -1.8697951924        -2.6914991380        -4.2201382920 
H    9   1         -4.8518869667        -3.1013731776        -2.7129966625 
H   10   1         -2.9646420431        -5.7614216035        -3.3221687791 
[GTO]
  1 0
s   6 1.0 
    27032.3800000000         0.8598581393
     4052.3870000000         1.6055304059
      922.3272000000         2.7458780898
      261.2407000000         4.2987677378
       85.3546400000         5.8797670930
       31.0350400000         6.3163984679
s   2 1.0 
       12.2608600000         2.9812145398
        4.9987080000         0.9419560379
s   1 1.0 
        1.1703110000         0.8019292557
s   1 1.0 
        0.4647474000         0.4011647998
s   1 1.0 
        0.1850454000         0.2010799703
p   4 1.0 
       63.2749500000         3.0572013698
       14.6270500000         3.3844845670
        4.4501220000         2.9474258212
        1.5275800000         1.7118271901
p   1 1.0 
        0.5293512000         0.6436058239
p   1 1.0 
        0.1747842000         0.1610897108
d   1 1.0 
        2.3140000000        12.3767310624
d   1 1.0 
        0.6450000000         1.3234257612
f   1 1.0 
        1.4280000000        12.7097950062

  2 0
s   6 1.0 
    13575.3500000000         0.5435905009
     2035.2330000000         1.0145543008
      463.2256000000         1.7315731015
      131.2002000000         2.6910371555
       42.8530200000         3.6044547316
       15.5841900000         3.7025565440
s   2 1.0 
        6.2067140000         1.8383540114
        2.5764900000         0.5447576606
s   1 1.0 
        0.5769634000         0.4718145074
s   1 1.0 
        0.2297283000         0.2364944571
s   1 1.0 
        0.0951644400         0.1221141848
p   4 1.0 
       34.6972300000         1.3596652360
        7.9582620000         1.4512590746
        2.3780830000         1.2709231872
        0.8143321000         0.8025721831
p   1 1.0 
        0.2888755000         0.3018759228
p   1 1.0 
        0.1005682000         0.0807264648
d   1 1.0 
        1.0970000000         3.3522135855
d   1 1.0 
        0.3180000000         0.3838994974
f   1 1.0 
        0.7610000000         3.0840084332

  3 0
s   6 1.0 
    13575.3500000000         0.5435905009
     2035.2330000000         1.0145543008
      463.2256000000         1.7315731015
      131.2002000000         2.6910371555
       42.8530200000         3.6044547316
       15.5841900000         3.7025565440
s   2 1.0 
        6.2067140000         1.8383540114
        2.5764900000         0.5447576606
s   1 1.0 
        0.5769634000         0.4718145074
s   1 1.0 
        0.2297283000         0.2364944571
s   1 1.0 
        0.0951644400         0.1221141848
p   4 1.0 
       34.6972300000         1.3596652360
        7.9582620000         1.4512590746
        2.3780830000         1.2709231872
        0.8143321000         0.8025721831
p   1 1.0 
        0.2888755000         0.3018759228
p   1 1.0 
        0.1005682000         0.0807264648
d   1 1.0 
        1.0970000000         3.3522135855
d   1 1.0 
        0.3180000000         0.3838994974
f   1 1.0 
        0.7610000000         3.0840084332

  4 0
s   6 1.0 
    13575.3500000000         0.5435905009
     2035.2330000000         1.0145543008
      463.2256000000         1.7315731015
      131.2002000000         2.6910371555
       42.8530200000         3.6044547316
       15.5841900000         3.7025565440
s   2 1.0 
        6.2067140000         1.8383540114
        2.5764900000         0.5447576606
s   1 1.0 
        0.5769634000         0.4718145074
s   1 1.0 
        0.2297283000         0.2364944571
s   1 1.0 
        0.0951644400         0.1221141848
p   4 1.0 
       34.6972300000         1.3596652360
        7.9582620000         1.4512590746
        2.3780830000         1.2709231872
        0.8143321000         0.8025721831
p   1 1.0 
        0.2888755000         0.3018759228
p   1 1.0 
        0.1005682000         0.0807264648
d   1 1.0 
        1.0970000000         3.3522135855
d   1 1.0 
        0.3180000000         0.3838994974
f   1 1.0 
        0.7610000000         3.0840084332

  5 0
s   3 1.0 
       34.0613400000         0.2556298765
        5.1235750000         0.4613598729
        1.1646630000         0.6811216893
s   1 1.0 
        0.3272304000         0.3083545241
s   1 1.0 
        0.1030724000         0.1296483171
p   1 1.0 
        0.8000000000         1.0784563492

  6 0
s   3 1.0 
       34.0613400000         0.2556298765
        5.1235750000         0.4613598729
        1.1646630000         0.6811216893
s   1 1.0 
        0.3272304000         0.3083545241
s   1 1.0 
        0.1030724000         0.1296483171
p   1 1.0 
        0.8000000000         1.0784563492

  7 0
s   3 1.0 
       34.0613400000         0.2556298765
        5.1235750000         0.4613598729
        1.1646630000         0.6811216893
s   1 1.0 
        0.3272304000         0.3083545241
s   1 1.0 
        0.1030724000         0.1296483171
p   1 1.0 
        0.8000000000         1.0784563492

  8 0
s   3 1.0 
       34.0613400000         0.2556298765
        5.1235750000         0.4613598729
        1.1646630000         0.6811216893
s   1 1.0 
        0.3272304000         0.3083545241
s   1 1.0 
        0.1030724000         0.1296483171
p   1 1.0 
        0.8000000000         1.0784563492

  9 0
s   3 1.0 
       34.0613400000         0.2556298765
        5.1235750000         0.4613598729
        1.1646630000         0.6811216893
s   1 1.0 
        0.3272304000         0.3083545241
s   1 1.0 
        0.1030724000         0.1296483171
p   1 1.0 
        0.8000000000         1.0784563492

 10 0
s   3 1.0 
       34.0613400000         0.2556298765
        5.1235750000         0.4613598729
        1.1646630000         0.6811216893
s   1 1.0 
        0.3272304000         0.3083545241
s   1 1.0 
        0.1030724000         0.1296483171
p   1 1.0 
        0.8000000000         1.0784563492

[5D]
[7F]
[9G]
[MO]
 Sym=     1a
 Ene= -1.91924235952243E+01
 Spin= Alpha
 Occup= 2.000000
  1       0.435384999337
  2       0.639618322750
  3       0.034915607688
  4      -0.028953769109
  5       0.009919803633
  6      -0.001685099295
  7      -0.001411926290
  8      -0.000311164321
  9       0.004902598206
 10       0.004109273565
 11       0.000907735907
 12      -0.000352522435
 13      -0.000296099549
 14      -0.000068805738
 15      -0.000200460163
 16       0.000045986577
 17       0.000077322680
 18       0.000046488134
 19       0.000237335336
 20       0.000830596313
 21      -0.000258004383
 22      -0.000299319705
 23      -0.000229194810
 24      -0.001239148452
 25      -0.000035631775
 26      -0.000073079746
 27      -0.000062032422
 28       0.000010578935
 29       0.000047998059
 30       0.000074388528
 31      -0.000128722350
 32       0.000043996653
 33      -0.000263923628
 34       0.000766215661
 35       0.004494766699
 36      -0.001390198021
 37       0.000505141136
 38       0.000422176990
 39       0.000092736923
 40       0.006615285919
 41       0.005553608312
 42       0.001229923577
 43      -0.003835237529
 44      -0.003208420358
 45      -0.000693989965
 46      -0.000149219015
 47       0.000088747926
 48       0.000030216095
 49       0.000054106738
 50       0.000336872793
 51      -0.002929158819
 52       0.000676221850
 53       0.001161229756
 54       0.000706306589
 55       0.003608646939
 56       0.000059803462
 57       0.000142329390
 58       0.000086102664
 59       0.000108656389
 60      -0.000031682274
 61       0.000092531763
 62      -0.000119954045
 63       0.000017669900
 64      -0.000084947565
 65       0.000353493972
 66       0.001189329442
 67      -0.001885561106
 68       0.000093953696
 69       0.000153331866
 70      -0.000083996226
 71       0.000256252418
 72       0.000055237317
 73      -0.001003335142
 74       0.000411431717
 75       0.000079860028
 76       0.000750896780
 77       0.000028772599
 78      -0.000005726229
 79      -0.000061183357
 80       0.000001722448
 81       0.000091022571
 82      -0.000778632902
 83      -0.000901380711
 84      -0.000332381789
 85      -0.000269819517
 86      -0.000385000857
 87       0.000125066532
 88       0.000070070657
 89      -0.000003417765
 90       0.000024662954
 91      -0.000045943689
 92       0.000008988240
 93       0.000032096477
 94       0.000017764137
 95      -0.000085405184
 96       0.000353215373
 97       0.001193819979
 98      -0.001822521048
 99       0.000141877505
100       0.000051593124
101       0.000128352746
102      -0.000100932738
103       0.000000227610
104       0.001025422536
105       0.000306078301
106       0.000496741109
107      -0.000608045036
108       0.000051864925
109       0.000065093255
110      -0.000002331052
111       0.000015942890
112       0.000075142104
113      -0.000300509260
114       0.000607826408
115       0.000856595282
116       0.000149032682
117      -0.000737538381
118      -0.000059636255
119       0.000078898106
120       0.000105769784
121       0.000050731807
122      -0.000017555314
123      -0.000019531340
124       0.000020084216
125       0.000128781263
126       0.001075262651
127      -0.000158962427
128      -0.000020313625
129      -0.000025167726
130      -0.000209416510
131      -0.000000324411
132      -0.000494328066
133       0.000359303181
134      -0.000129649800
135      -0.000132619380
136      -0.000048946792
137      -0.000061262315
138      -0.000890317588
139       0.000411158726
140      -0.000080426666
141      -0.000198070809
142      -0.000016335223
143       0.000130209285
144       0.001085673178
145      -0.000162782236
146      -0.000068194048
147      -0.000060885836
148       0.000192466537
149      -0.000055872591
150      -0.000869843267
151       0.000400746847
152      -0.000204977576
153      -0.000053717950
154      -0.000035372308
155      -0.000005265692
156      -0.000547815827
157       0.000352242865
158      -0.000154998194
159      -0.000119646482
160      -0.000011700760
 Sym=     1a
 Ene= -1.03134104287626E+01
 Spin= Alpha
 Occup= 2.000000
  1       0.000085040375
  2       0.000352932385
  3      -0.003564504999
  4       0.014785044534
  5      -0.000193873344
  6       0.000504118908
  7       0.000422086420
  8       0.000093560814
  9      -0.006473708789
 10      -0.005425924367
 11      -0.001200181580
 12      -0.000117941017
 13      -0.000101067293
 14      -0.000021880785
 15       0.000126993294
 16       0.000022617321
 17      -0.000065121013
 18       0.000000115176
 19       0.000053327655
 20      -0.001924143814
 21       0.000460197467
 22       0.000729146957
 23       0.000443706483
 24       0.002292128664
 25       0.000143181368
 26       0.000303134740
 27       0.000239815897
 28       0.000019142112
 29      -0.000164304411
 30      -0.000178978363
 31       0.000327606410
 32      -0.467179936185
 33      -0.608415618318
 34      -0.038373468615
 35       0.024066805507
 36      -0.018006732053
 37      -0.000591295205
 38      -0.000492205289
 39      -0.000108212551
 40      -0.011391192003
 41      -0.009557271707
 42      -0.002125695062
 43       0.004808053305
 44       0.004016607150
 45       0.000898678873
 46       0.000253062506
 47      -0.000497225774
 48       0.000055274725
 49      -0.000287750191
 50      -0.001924195404
 51       0.006419868636
 52      -0.000451994373
 53      -0.002808740819
 54      -0.000923923535
 55      -0.003699342990
 56       0.000327610775
 57       0.000661920513
 58       0.000574492208
 59      -0.000141732249
 60      -0.000446030215
 61      -0.000723738063
 62       0.001234213713
 63      -0.000700609910
 64      -0.001019204627
 65       0.000938634292
 66      -0.008645014715
 67       0.007770699104
 68       0.000055310775
 69       0.000025884546
 70       0.000079668955
 71      -0.002542391187
 72      -0.003154661889
 73       0.002943086606
 74       0.000482034020
 75       0.001554066217
 76      -0.002185610977
 77      -0.000011698112
 78      -0.000070732638
 79      -0.000065327198
 80      -0.000027964773
 81       0.000053429136
 82       0.000694206031
 83       0.000581663727
 84       0.000307035378
 85       0.000129674159
 86      -0.000626157242
 87       0.000012862639
 88       0.000320716003
 89       0.000500993038
 90       0.000192305155
 91      -0.000500556088
 92       0.000030027152
 93       0.000109736349
 94      -0.000697371829
 95      -0.001015090224
 96       0.000945211980
 97      -0.008676338209
 98       0.007799002743
 99       0.000049945958
100       0.000063322001
101      -0.000059259524
102      -0.002803018234
103      -0.001335602259
104      -0.003951878415
105       0.001084947056
106      -0.000149950718
107       0.002492495213
108       0.000036900580
109       0.000085496974
110       0.000052247281
111       0.000034401182
112       0.000014134883
113       0.000271362219
114      -0.000745986768
115      -0.000711623633
116      -0.000312812326
117      -0.000305748999
118       0.000403840080
119       0.000617358021
120       0.000148717637
121       0.000200288033
122       0.000106999482
123      -0.000101656344
124       0.000156448705
125      -0.000006558601
126       0.000239695475
127      -0.000420386407
128       0.000188248699
129       0.000263692386
130      -0.000173747599
131      -0.000023556469
132       0.000473538974
133      -0.000129550068
134       0.000043351722
135       0.000181267211
136      -0.000174567076
137       0.000035056944
138       0.000511756390
139       0.000379862964
140       0.000126546676
141       0.000107218454
142      -0.000198472784
143      -0.000006129512
144       0.000237030003
145      -0.000432415837
146       0.000243035424
147       0.000105129663
148       0.000255097038
149       0.000030490999
150       0.000510447996
151       0.000337438997
152       0.000079956994
153       0.000067556278
154       0.000238151477
155      -0.000018359129
156       0.000479164533
157      -0.000079736893
158       0.000144988660
159      -0.000021837284
160       0.000209726847
 Sym=     1a
 Ene= -1.02270544672293E+01
 Spin= Alpha
 Occup= 2.000000
  1       0.000004567959
  2      -0.000053031410
  3       0.000605348163
  4      -0.002563400399
  5       0.000709453787
  6      -0.000059916880
  7      -0.000080791147
  8       0.000125410472
  9       0.000605587819
 10       0.000745893873
 11      -0.000822763667
 12       0.000250768177
 13       0.000144591620
 14       0.000561728755
 15      -0.000032571058
 16      -0.000032415239
 17      -0.000017333887
 18      -0.000009435011
 19       0.000010605624
 20       0.000126092898
 21       0.000245251004
 22       0.000187828611
 23       0.000070716868
 24      -0.000095808014
 25       0.000034524268
 26       0.000056241447
 27       0.000020106763
 28       0.000016991685
 29       0.000002796604
 30      -0.000011467659
 31       0.000018474827
 32      -0.000759674689
 33      -0.000899718575
 34       0.000036460107
 35       0.002420131024
 36      -0.009258641543
 37      -0.000078225030
 38      -0.000229944689
 39       0.000496589650
 40       0.000796556783
 41       0.002078778124
 42      -0.004482842996
 43      -0.000048973026
 44       0.001946907992
 45      -0.006158540880
 46      -0.000055912881
 47       0.000014024554
 48       0.000083506278
 49       0.000001591088
 50      -0.000138180100
 51      -0.000627942756
 52       0.003119474578
 53       0.003049596570
 54       0.001009859392
 55       0.000339646204
 56      -0.000061661105
 57       0.000272780765
 58       0.000581880548
 59       0.000250086795
 60      -0.000575784542
 61       0.000261924835
 62      -0.000111225550
 63       0.467030851315
 64       0.608618620813
 65       0.034349291007
 66      -0.013847204869
 67       0.032623165217
 68       0.000015601429
 69       0.000059434933
 70      -0.000329976659
 71       0.000477855685
 72       0.000506480090
 73      -0.000571584777
 74       0.000846723914
 75       0.001139704816
 76      -0.003418419091
 77       0.000026489669
 78       0.000025348435
 79       0.000004904203
 80       0.000019958296
 81       0.000083202662
 82      -0.000404133939
 83      -0.000325017390
 84      -0.000070245603
 85      -0.000071193862
 86      -0.000192095936
 87       0.000467878990
 88       0.000959503464
 89       0.000753890042
 90       0.000455056172
 91       0.000121412300
 92       0.000866725107
 93      -0.000588435102
 94      -0.006825742215
 95      -0.008886745653
 96      -0.000016679812
 97      -0.003375799623
 98      -0.004448478590
 99      -0.000004869453
100      -0.000055098414
101       0.000099842482
102      -0.000470321074
103       0.000556887228
104      -0.003322980983
105       0.000602066514
106       0.000617201834
107      -0.002300710542
108      -0.000045647407
109      -0.000020252633
110       0.000001381278
111      -0.000016930229
112      -0.000050169229
113      -0.001069739109
114      -0.000630483444
115       0.000007710718
116       0.000009774181
117       0.000665522871
118      -0.000120525511
119      -0.000076879804
120       0.000055090148
121      -0.000036341848
122       0.000022132393
123      -0.000015549503
124       0.000020690589
125      -0.000453600128
126      -0.001838024498
127      -0.003751464836
128       0.000815436953
129       0.000533305997
130       0.001624212567
131      -0.000432692991
132      -0.002597161500
133      -0.004965188688
134      -0.001980964105
135       0.000091922282
136       0.000126255924
137      -0.000430050683
138      -0.002738380054
139      -0.005365744735
140       0.000329683034
141      -0.001943774692
142      -0.000296027714
143      -0.000065576177
144      -0.000822691397
145      -0.000988466478
146       0.000003957573
147       0.000046710370
148      -0.000155715921
149       0.000035332873
150       0.000429045175
151       0.000857271669
152       0.000089757566
153       0.000036484620
154       0.000038479683
155       0.000033804316
156       0.000294363135
157       0.000221727514
158       0.000104942420
159       0.000041471719
160       0.000009980536
 Sym=     1a
 Ene= -1.02267093339869E+01
 Spin= Alpha
 Occup= 2.000000
  1      -0.000004728727
  2       0.000055043665
  3      -0.000627056687
  4       0.002649904119
  5      -0.000762455094
  6       0.000062964532
  7       0.000020445414
  8       0.000144327780
  9      -0.000657103360
 10      -0.000307817677
 11      -0.001030436989
 12      -0.000283590815
 13      -0.000335391347
 14       0.000454772615
 15       0.000012400907
 16      -0.000032747212
 17      -0.000033478824
 18      -0.000011136055
 19       0.000005169136
 20       0.000033937841
 21       0.000259956423
 22       0.000204964324
 23       0.000078442934
 24      -0.000024577838
 25      -0.000007838219
 26      -0.000036671338
 27      -0.000045621415
 28      -0.000015356239
 29       0.000042184946
 30       0.000000292505
 31      -0.000016794935
 32       0.000778959774
 33       0.000921773117
 34      -0.000027767987
 35      -0.002534041094
 36       0.009571911521
 37       0.000130064408
 38      -0.000051551298
 39       0.000521883374
 40      -0.001180459447
 41       0.000392885934
 42      -0.004732488501
 43      -0.000580919701
 44       0.001499122873
 45      -0.006124155553
 46       0.000089048180
 47       0.000089409818
 48      -0.000008272114
 49       0.000027359162
 50       0.000118291050
 51       0.002553181327
 52       0.002763262702
 53       0.001580182066
 54       0.000495877726
 55      -0.001739465671
 56      -0.000483785226
 57      -0.000712082887
 58      -0.000080829517
 59      -0.000285518256
 60      -0.000240920196
 61       0.000012701556
 62       0.000111640219
 63      -0.006824965793
 64      -0.008902345830
 65      -0.000995921217
 66       0.003825386482
 67       0.003545272125
 68       0.000028766753
 69      -0.000023550497
 70       0.000118537247
 71       0.000279193627
 72       0.001128861682
 73      -0.003203079923
 74      -0.000174120619
 75      -0.000109191278
 76      -0.002363447931
 77       0.000035820649
 78      -0.000008265387
 79      -0.000023143266
 80      -0.000003995776
 81       0.000055713231
 82       0.000705161819
 83      -0.000579995625
 84      -0.000973525093
 85      -0.000288586262
 86      -0.000379001698
 87      -0.000090492788
 88       0.000005309097
 89       0.000093262439
 90       0.000059623727
 91      -0.000020754367
 92       0.000000089039
 93       0.000005509691
 94      -0.467030267256
 95      -0.608616541060
 96      -0.034375108110
 97       0.013957384900
 98      -0.032601728821
 99       0.000006710180
100       0.000061199311
101      -0.000334848310
102      -0.000418888528
103      -0.000256448143
104      -0.000637074498
105      -0.000544381340
106       0.000043269271
107      -0.003624145371
108      -0.000013559272
109      -0.000000823427
110       0.000017024155
111      -0.000008352982
112      -0.000088598215
113       0.000274413894
114      -0.000182547481
115      -0.000357403955
116      -0.000027947940
117       0.000293996321
118      -0.000379287598
119      -0.000949090223
120      -0.000586475512
121      -0.000483665830
122       0.000474870671
123      -0.000351347125
124       0.001028281952
125       0.000078129631
126       0.000864126033
127       0.001097775378
128      -0.000032012815
129       0.000014677692
130      -0.000204821451
131      -0.000017393523
132      -0.000178433085
133      -0.000083810742
134       0.000009215088
135      -0.000099858840
136      -0.000026757973
137      -0.000024416247
138      -0.000380085447
139      -0.000702081156
140      -0.000060696889
141      -0.000037021952
142       0.000023311746
143       0.000455283245
144       0.001855571906
145       0.003780279211
146      -0.000966385709
147      -0.001005752158
148       0.001288527789
149       0.000430609691
150       0.002735557375
151       0.005339343955
152       0.001907134659
153      -0.000592183053
154      -0.000013690609
155       0.000433121738
156       0.002621227844
157       0.004987015887
158       0.000137957472
159       0.001911515489
160       0.000541124747
 Sym=     1a
 Ene= -1.07476598308522E+00
 Spin= Alpha
 Occup= 2.000000
  1      -0.088218831472
  2      -0.207896857780
  3       0.299488737517
  4       0.391008718346
  5       0.115788900713
  6      -0.090376372224
  7      -0.075782211288
  8      -0.016755233942
  9      -0.068873295733
 10      -0.057831376428
 11      -0.012599369820
 12      -0.006940977193
 13      -0.005695506336
 14      -0.001423754869
 15      -0.003737354591
 16       0.001189107397
 17       0.001314700439
 18       0.001007392358
 19       0.005418991800
 20      -0.008868145866
 21       0.002218916192
 22       0.003260825114
 23       0.002131164904
 24       0.011171717001
 25       0.000681525323
 26       0.001436697225
 27       0.001150987455
 28      -0.000003893714
 29      -0.000806559084
 30      -0.001002649245
 31       0.001805896920
 32      -0.058084403104
 33      -0.122351139670
 34       0.187696907211
 35       0.158573180199
 36       0.019956931700
 37       0.102225964448
 38       0.085711946328
 39       0.018913980115
 40       0.028840365971
 41       0.023852494939
 42       0.005831758387
 43       0.001075665451
 44       0.000819620316
 45       0.000594352749
 46      -0.008331718872
 47       0.003861898288
 48       0.002569973084
 49       0.002935385155
 50       0.017040136590
 51       0.003159219837
 52       0.002466265861
 53      -0.002815684393
 54       0.000956991203
 55       0.008638388817
 56      -0.002482699829
 57      -0.005404192000
 58      -0.004141807998
 59      -0.000920879810
 60       0.002654244089
 61       0.002143646682
 62      -0.004242103278
 63      -0.009048952506
 64      -0.018788132873
 65       0.029027067088
 66       0.013752428297
 67      -0.007715007304
 68       0.009409865300
 69       0.011255709540
 70      -0.009596929990
 71       0.002742731617
 72       0.002455101979
 73       0.001010121891
 74      -0.001020535941
 75      -0.000653903448
 76       0.000514771663
 77      -0.000399425378
 78      -0.000633634020
 79      -0.000588405461
 80      -0.000105435986
 81       0.000969131622
 82      -0.001440475075
 83       0.000481324546
 84       0.000750726830
 85       0.000298205790
 86       0.000673195348
 87       0.000192959912
 88      -0.000385839331
 89      -0.000344104210
 90      -0.000083904422
 91      -0.000244449977
 92       0.000547994049
 93      -0.000513396125
 94      -0.009041570651
 95      -0.018774277783
 96       0.028818233923
 97       0.014865524716
 98      -0.006653436251
 99       0.010220435221
100       0.005216791487
101       0.013203613559
102       0.003188679045
103       0.002399789438
104       0.000660277317
105      -0.000553982817
106      -0.000543026994
107      -0.000665653450
108       0.000122372922
109       0.000986979819
110       0.000650494877
111       0.000353054224
112       0.000593157479
113      -0.001497782647
114       0.000020079805
115       0.000397994383
116       0.000112916519
117       0.000769832879
118      -0.000400278670
119      -0.000028522645
120      -0.000028435040
121       0.000178133652
122       0.000594211612
123       0.000108523337
124      -0.000606221701
125       0.005489372978
126       0.005304014550
127       0.002361804266
128      -0.000134214181
129       0.000093662471
130      -0.001340193270
131       0.003116845165
132       0.003508334587
133       0.000988244616
134       0.000783218577
135       0.000310471468
136      -0.000338406631
137       0.003444240299
138       0.004330950453
139       0.001325971531
140       0.000253659582
141       0.001063312410
142      -0.000387982723
143       0.005493290847
144       0.005288655162
145       0.002088387210
146      -0.000203261832
147      -0.000389514957
148       0.001244169190
149       0.003411865664
150       0.004043223489
151       0.001160523090
152       0.000914935626
153      -0.000004352071
154       0.000576336529
155       0.003147622919
156       0.003419183250
157       0.001046065926
158       0.000332847987
159       0.000610702772
160       0.000556529179
 Sym=     1a
 Ene= -7.97467590571629E-01
 Spin= Alpha
 Occup= 2.000000
  1       0.030440206344
  2       0.072434991503
  3      -0.109956820551
  4      -0.139635903496
  5      -0.067345021224
  6       0.000947888768
  7       0.000739320475
  8       0.000188817637
  9      -0.001044028273
 10      -0.000836892731
 11      -0.000166492890
 12      -0.002038464823
 13      -0.001715118185
 14       0.000115577232
 15       0.000650959765
 16      -0.000056186847
 17      -0.000270770167
 18      -0.000105915461
 19      -0.000381874510
 20       0.000888646167
 21       0.000055846471
 22      -0.000470442481
 23       0.000038062296
 24       0.000194361428
 25      -0.000103166778
 26      -0.000225917013
 27      -0.000156839973
 28      -0.000097118691
 29       0.000083816047
 30      -0.000011155143
 31      -0.000005940233
 32      -0.041965733880
 33      -0.089668645062
 34       0.141592819276
 35       0.142303028504
 36       0.033052693693
 37      -0.101079325994
 38      -0.084965052101
 39      -0.018694891582
 40      -0.060265257722
 41      -0.050928998454
 42      -0.010344541569
 43      -0.011243463793
 44      -0.008628965650
 45      -0.004770149679
 46       0.008081359019
 47       0.000069068668
 48      -0.003729180412
 49      -0.000840992570
 50      -0.002149160705
 51       0.007277528351
 52       0.000075038719
 53      -0.004148569401
 54      -0.000701682889
 55      -0.001640965639
 56      -0.000567943076
 57      -0.001483694665
 58      -0.000858290347
 59      -0.001196621456
 60       0.000324885621
 61      -0.001106546275
 62       0.001383213635
 63      -0.059335676499
 64      -0.126288613367
 65       0.189287300100
 66       0.220609758623
 67       0.017225577433
 68       0.001564192053
 69       0.010850381216
 70      -0.035470085848
 71       0.001373109059
 72       0.009321865677
 73      -0.032578931255
 74      -0.003046156366
 75      -0.000294080006
 76      -0.004400874803
 77       0.002181702080
 78      -0.001093348249
 79      -0.002223328682
 80      -0.000399130281
 81       0.000341194257
 82       0.005317668364
 83      -0.002546678591
 84      -0.005624365405
 85      -0.001449417570
 86      -0.000531395892
 87       0.000108392058
 88       0.002611816807
 89       0.003030720904
 90       0.001431164063
 91      -0.000358973003
 92       0.001620623545
 93      -0.000902501837
 94      -0.059221862082
 95      -0.126034207812
 96       0.188379174267
 97       0.223368120216
 98       0.007396335349
 99       0.003176638978
100      -0.007103131095
101       0.036270185421
102       0.002310423365
103      -0.005734091994
104       0.034397037228
105      -0.001808371271
106      -0.003240590633
107       0.000541358605
108       0.002998104948
109       0.001533533635
110      -0.000248919227
111       0.000136611988
112      -0.000222203518
113       0.007472409709
114       0.003251024956
115      -0.000921698096
116       0.000854158956
117      -0.002121421802
118       0.002374525446
119       0.003164341921
120       0.000840715476