
                                 *****************
                                 * O   R   C   A *
                                 *****************

           --- An Ab Initio, DFT and Semiempirical electronic structure package ---

                  #######################################################
                  #                        -***-                        #
                  #          Department of theory and spectroscopy      #
                  #               Directorship: Frank Neese             #
                  #        Max Planck Institute fuer Kohlenforschung    #
                  #                Kaiser Wilhelm Platz 1               #
                  #                 D-45470 Muelheim/Ruhr               #
                  #                      Germany                        #
                  #                                                     #
                  #                  All rights reserved                #
                  #                        -***-                        #
                  #######################################################


                         Program Version 4.2.1 -  RELEASE  -


 With contributions from (in alphabetic order):
   Daniel Aravena         : Magnetic Suceptibility
   Michael Atanasov       : Ab Initio Ligand Field Theory (pilot matlab implementation)
   Alexander A. Auer      : GIAO ZORA, VPT2
   Ute Becker             : Parallelization
   Giovanni Bistoni       : ED, misc. LED, open-shell LED, HFLD
   Martin Brehm           : Molecular dynamics
   Dmytro Bykov           : SCF Hessian
   Vijay G. Chilkuri      : MRCI spin determinant printing, contributions to CSF-ICE
   Dipayan Datta          : RHF DLPNO-CCSD density
   Achintya Kumar Dutta   : EOM-CC, STEOM-CC
   Dmitry Ganyushin       : Spin-Orbit,Spin-Spin,Magnetic field MRCI
   Miquel Garcia          : C-PCM Hessian, Gaussian charge scheme
   Yang Guo               : DLPNO-NEVPT2, CIM, IAO-localization
   Andreas Hansen         : Spin unrestricted coupled pair/coupled cluster methods
   Benjamin Helmich-Paris : CASSCF linear response (MC-RPA)
   Lee Huntington         : MR-EOM, pCC
   Robert Izsak           : Overlap fitted RIJCOSX, COSX-SCS-MP3, EOM
   Christian Kollmar      : KDIIS, OOCD, Brueckner-CCSD(T), CCSD density
   Simone Kossmann        : Meta GGA functionals, TD-DFT gradient, OOMP2, MP2 Hessian
   Martin Krupicka        : AUTO-CI
   Lucas Lang             : DCDCAS
   Dagmar Lenk            : GEPOL surface, SMD
   Dimitrios Liakos       : Extrapolation schemes; Compound Job, initial MDCI parallelization
   Dimitrios Manganas     : Further ROCIS development; embedding schemes
   Dimitrios Pantazis     : SARC Basis sets
   Taras Petrenko         : DFT Hessian,TD-DFT gradient, ASA, ECA, R-Raman, ABS, FL, XAS/XES, NRVS
   Peter Pinski           : DLPNO-MP2, DLPNO-MP2 Gradient
   Christoph Reimann      : Effective Core Potentials
   Marius Retegan         : Local ZFS, SOC
   Christoph Riplinger    : Optimizer, TS searches, QM/MM, DLPNO-CCSD(T), (RO)-DLPNO pert. Triples
   Tobias Risthaus        : Range-separated hybrids, TD-DFT gradient, RPA, STAB
   Michael Roemelt        : Original ROCIS implementation
   Masaaki Saitow         : Open-shell DLPNO-CCSD energy and density
   Barbara Sandhoefer     : DKH picture change effects
   Avijit Sen             : IP-ROCIS
   Kantharuban Sivalingam : CASSCF convergence, NEVPT2, FIC-MRCI
   Bernardo de Souza      : ESD, SOC TD-DFT
   Georgi Stoychev        : AutoAux, RI-MP2 NMR
   Willem Van den Heuvel  : Paramagnetic NMR
   Boris Wezisla          : Elementary symmetry handling
   Frank Wennmohs         : Technical directorship


 We gratefully acknowledge several colleagues who have allowed us to
 interface, adapt or use parts of their codes:
   Stefan Grimme, W. Hujo, H. Kruse,             : VdW corrections, initial TS optimization,
                  C. Bannwarth                     DFT functionals, gCP, sTDA/sTD-DF
   Ed Valeev, F. Pavosevic, A. Kumar             : LibInt (2-el integral package), F12 methods
   Garnet Chan, S. Sharma, J. Yang, R. Olivares  : DMRG
   Ulf Ekstrom                                   : XCFun DFT Library
   Mihaly Kallay                                 : mrcc  (arbitrary order and MRCC methods)
   Andreas Klamt, Michael Diedenhofen            : otool_cosmo (COSMO solvation model)
   Jiri Pittner, Ondrej Demel                    : Mk-CCSD
   Frank Weinhold                                : gennbo (NPA and NBO analysis)
   Christopher J. Cramer and Donald G. Truhlar   : smd solvation model
   Lars Goerigk                                  : TD-DFT with DH, B97 family of functionals
   V. Asgeirsson, H. Jonsson                     : NEB implementation
   FAccTs GmbH                                   : IRC, NEB, NEB-TS, Multilevel, MM, QM/MM, CI optimization
   S Lehtola, MJT Oliveira, MAL Marques          : LibXC Library


 Your calculation uses the libint2 library for the computation of 2-el integrals
 For citations please refer to: http://libint.valeyev.net

 Your ORCA version has been built with support for libXC version: 4.2.3
 For citations please refer to: https://tddft.org/programs/libxc/

 This ORCA versions uses:
   CBLAS   interface :  Fast vector & matrix operations
   LAPACKE interface :  Fast linear algebra routines
   SCALAPACK package :  Parallel linear algebra routines



Reading of a custom basis requested
Basis file         : system.bas
READING GTO-BASIS: OXYGEN
READING GTO-BASIS: CARBON
READING GTO-BASIS: HYDROGEN
Basis successfully read

Reading of a custom AuxJ basis requested
Basis file: system.aux
READING GTO-BASIS: OXYGEN
READING GTO-BASIS: CARBON
READING GTO-BASIS: HYDROGEN
Basis read successfully!

----- Orbital basis set information -----
----- AuxJ basis set information -----
================================================================================
                                        WARNINGS
                       Please study these warnings very carefully!
================================================================================


INFO   : the flag for use of LIBINT has been found!

================================================================================
                                       INPUT FILE
================================================================================
NAME = temp.inp
|  1> * xyz  0 1
|  2>   O    0.034238   -1.051611    0.036820
|  3>   C   -0.880485   -1.818628   -0.132566
|  4>   C   -1.431699   -2.656658    0.991522
|  5>   C   -1.532068   -1.991890   -1.479901
|  6>   H   -0.977681   -2.362060    1.935600
|  7>   H   -2.519642   -2.562253    1.050554
|  8>   H   -1.215881   -3.712630    0.799843
|  9>   H   -0.989453   -1.424280   -2.233201
| 10>   H   -2.567508   -1.641176   -1.435656
| 11>   H   -1.568821   -3.048813   -1.758016
| 12> * 
| 13> 
| 14> %pal
| 15> nprocs 6
| 16> end
| 17> 
| 18> %basis
| 19> GTOName ="system.bas";
| 20> GTOAuxName ="system.aux";
| 21> end
| 22>  
| 23> 
| 24> ! DFT PBE0 TightSCF  
| 25> 
| 26> 
| 27>                          ****END OF INPUT****
================================================================================

                       ****************************
                       * Single Point Calculation *
                       ****************************

---------------------------------
CARTESIAN COORDINATES (ANGSTROEM)
---------------------------------
  O      0.034238   -1.051611    0.036820
  C     -0.880485   -1.818628   -0.132566
  C     -1.431699   -2.656658    0.991522
  C     -1.532068   -1.991890   -1.479901
  H     -0.977681   -2.362060    1.935600
  H     -2.519642   -2.562253    1.050554
  H     -1.215881   -3.712630    0.799843
  H     -0.989453   -1.424280   -2.233201
  H     -2.567508   -1.641176   -1.435656
  H     -1.568821   -3.048813   -1.758016

----------------------------
CARTESIAN COORDINATES (A.U.)
----------------------------
  NO LB      ZA    FRAG     MASS         X           Y           Z
   0 O     8.0000    0    15.999    0.064700   -1.987257    0.069580
   1 C     6.0000    0    12.011   -1.663876   -3.436709   -0.250513
   2 C     6.0000    0    12.011   -2.705519   -5.020356    1.873705
   3 C     6.0000    0    12.011   -2.895189   -3.764127   -2.796608
   4 H     1.0000    0     1.008   -1.847549   -4.463647    3.657754
   5 H     1.0000    0     1.008   -4.761433   -4.841956    1.985259
   6 H     1.0000    0     1.008   -2.297682   -7.015854    1.511484
   7 H     1.0000    0     1.008   -1.869795   -2.691499   -4.220138
   8 H     1.0000    0     1.008   -4.851887   -3.101373   -2.712997
   9 H     1.0000    0     1.008   -2.964642   -5.761422   -3.322169

--------------------------------
INTERNAL COORDINATES (ANGSTROEM)
--------------------------------
 O      0   0   0     0.000000000000     0.00000000     0.00000000
 C      1   0   0     1.205705130624     0.00000000     0.00000000
 C      2   1   0     1.506554010462   121.77745769     0.00000000
 C      2   1   3     1.506615985830   121.79625526   180.09347956
 H      3   2   1     1.088211190906   110.12498023     7.24836033
 H      3   2   1     1.093625645410   110.86905667   129.44069628
 H      3   2   1     1.094712342558   109.49931938   247.01695816
 H      4   2   1     1.088151202878   110.08656081     6.00349288
 H      4   2   1     1.094117874555   109.64920070   245.55769464
 H      4   2   1     1.093519530764   110.67886779   128.04346258

---------------------------
INTERNAL COORDINATES (A.U.)
---------------------------
 O      0   0   0     0.000000000000     0.00000000     0.00000000
 C      1   0   0     2.278452495144     0.00000000     0.00000000
 C      2   1   0     2.846974485734   121.77745769     0.00000000
 C      2   1   3     2.847091602206   121.79625526   180.09347956
 H      3   2   1     2.056421126680   110.12498023     7.24836033
 H      3   2   1     2.066652962857   110.86905667   129.44069628
 H      3   2   1     2.068706522858   109.49931938   247.01695816
 H      4   2   1     2.056307765737   110.08656081     6.00349288
 H      4   2   1     2.067583141137   109.64920070   245.55769464
 H      4   2   1     2.066452435239   110.67886779   128.04346258

---------------------
BASIS SET INFORMATION
---------------------
There are 3 groups of distinct atoms

 Group   1 Type O   : 11s6p2d1f contracted to 5s3p2d1f pattern {62111/411/11/1}
 Group   2 Type C   : 11s6p2d1f contracted to 5s3p2d1f pattern {62111/411/11/1}
 Group   3 Type H   : 5s1p contracted to 3s1p pattern {311/1}

Atom   0O    basis set group =>   1
Atom   1C    basis set group =>   2
Atom   2C    basis set group =>   2
Atom   3C    basis set group =>   2
Atom   4H    basis set group =>   3
Atom   5H    basis set group =>   3
Atom   6H    basis set group =>   3
Atom   7H    basis set group =>   3
Atom   8H    basis set group =>   3
Atom   9H    basis set group =>   3
---------------------------------
AUXILIARY/J BASIS SET INFORMATION
---------------------------------
There are 3 groups of distinct atoms

 Group   1 Type O   : 8s6p5d3f1g contracted to 8s6p4d3f1g pattern {11111111/111111/2111/111/1}
 Group   2 Type C   : 8s6p5d3f1g contracted to 8s6p4d3f1g pattern {11111111/111111/2111/111/1}
 Group   3 Type H   : 4s3p2d contracted to 4s2p1d pattern {1111/21/2}

Atom   0O    basis set group =>   1
Atom   1C    basis set group =>   2
Atom   2C    basis set group =>   2
Atom   3C    basis set group =>   2
Atom   4H    basis set group =>   3
Atom   5H    basis set group =>   3
Atom   6H    basis set group =>   3
Atom   7H    basis set group =>   3
Atom   8H    basis set group =>   3
Atom   9H    basis set group =>   3


           ************************************************************
           *        Program running with 6 parallel MPI-processes     *
           *              working on a common directory               *
           ************************************************************
------------------------------------------------------------------------------
                           ORCA GTO INTEGRAL CALCULATION
------------------------------------------------------------------------------

                         BASIS SET STATISTICS AND STARTUP INFO

 # of primitive gaussian shells          ...  116
 # of primitive gaussian functions       ...  232
 # of contracted shells                  ...   68
 # of contracted basis functions         ...  160
 Highest angular momentum                ...    3
 Maximum contraction depth               ...    6
 Integral package used                   ... LIBINT
 Integral threshhold            Thresh   ...  2.500e-11
 Primitive cut-off              TCut     ...  2.500e-12


------------------------------ INTEGRAL EVALUATION ----------------------------


 * One electron integrals 
 Pre-screening matrix                    ... done
 Shell pair data                         ... done (   0.001 sec)



           ************************************************************
           *        Program running with 6 parallel MPI-processes     *
           *              working on a common directory               *
           ************************************************************
-------------------------------------------------------------------------------
                                 ORCA SCF
-------------------------------------------------------------------------------

------------
SCF SETTINGS
------------
Hamiltonian:
 Density Functional     Method          .... DFT(GTOs)
 Exchange Functional    Exchange        .... PBE
   PBE kappa parameter   XKappa         ....  0.804000
   PBE mue parameter    XMuePBE         ....  0.219520
 Correlation Functional Correlation     .... PBE
   PBE beta parameter  CBetaPBE         ....  0.066725
 LDA part of GGA corr.  LDAOpt          .... PW91-LDA
 Gradients option       PostSCFGGA      .... off
 Hybrid DFT is turned on
   Fraction HF Exchange ScalHFX         ....  0.250000
   Scaling of DF-GGA-X  ScalDFX         ....  0.750000
   Scaling of DF-GGA-C  ScalDFC         ....  1.000000
   Scaling of DF-LDA-C  ScalLDAC        ....  1.000000
   Perturbative correction              ....  0.000000
   Density functional embedding theory  .... OFF
   NL short-range parameter             ....  6.900000


General Settings:
 Integral files         IntName         .... temp
 Hartree-Fock type      HFTyp           .... RHF
 Total Charge           Charge          ....    0
 Multiplicity           Mult            ....    1
 Number of Electrons    NEL             ....   32
 Basis Dimension        Dim             ....  160
 Nuclear Repulsion      ENuc            ....    119.8955382865 Eh

Convergence Acceleration:
 DIIS                   CNVDIIS         .... on
   Start iteration      DIISMaxIt       ....    12
   Startup error        DIISStart       ....  0.200000
   # of expansion vecs  DIISMaxEq       ....     5
   Bias factor          DIISBfac        ....   1.050
   Max. coefficient     DIISMaxC        ....  10.000
 Newton-Raphson         CNVNR           .... off
 SOSCF                  CNVSOSCF        .... on
   Start iteration      SOSCFMaxIt      ....   150
   Startup grad/error   SOSCFStart      ....  0.003300
 Level Shifting         CNVShift        .... on
   Level shift para.    LevelShift      ....    0.2500
   Turn off err/grad.   ShiftErr        ....    0.0010
 Zerner damping         CNVZerner       .... off
 Static damping         CNVDamp         .... on
   Fraction old density DampFac         ....    0.7000
   Max. Damping (<1)    DampMax         ....    0.9800
   Min. Damping (>=0)   DampMin         ....    0.0000
   Turn off err/grad.   DampErr         ....    0.1000
 Fernandez-Rico         CNVRico         .... off

SCF Procedure:
 Maximum # iterations   MaxIter         ....   125
 SCF integral mode      SCFMode         .... Direct
   Integral package                     .... LIBINT
 Reset frequency        DirectResetFreq ....    20
 Integral Threshold     Thresh          ....  2.500e-11 Eh
 Primitive CutOff       TCut            ....  2.500e-12 Eh

Convergence Tolerance:
 Convergence Check Mode ConvCheckMode   .... Total+1el-Energy
 Convergence forced     ConvForced      .... 0
 Energy Change          TolE            ....  1.000e-08 Eh
 1-El. energy change                    ....  1.000e-05 Eh
 Orbital Gradient       TolG            ....  1.000e-05
 Orbital Rotation angle TolX            ....  1.000e-05
 DIIS Error             TolErr          ....  5.000e-07


Diagonalization of the overlap matrix:
Smallest eigenvalue                        ... 3.783e-04
Time for diagonalization                   ...    0.002 sec
Threshold for overlap eigenvalues          ... 1.000e-08
Number of eigenvalues below threshold      ... 0
Time for construction of square roots      ...    0.002 sec
Total time needed                          ...    0.005 sec

-------------------
DFT GRID GENERATION
-------------------

General Integration Accuracy     IntAcc      ...  4.340
Radial Grid Type                 RadialGrid  ... Gauss-Chebyshev
Angular Grid (max. acc.)         AngularGrid ... Lebedev-110
Angular grid pruning method      GridPruning ... 3 (G Style)
Weight generation scheme         WeightScheme... Becke
Basis function cutoff            BFCut       ...    1.0000e-11
Integration weight cutoff        WCut        ...    1.0000e-14
Grids for H and He will be reduced by one unit

# of grid points (after initial pruning)     ...  11448 (   0.0 sec)
# of grid points (after weights+screening)   ...  10920 (   0.0 sec)
nearest neighbour list constructed           ...    0.0 sec
Grid point re-assignment to atoms done       ...    0.0 sec
Grid point division into batches done        ...    0.0 sec
Reduced shell lists constructed in    0.0 sec

Total number of grid points                  ...    10920
Total number of batches                      ...      175
Average number of points per batch           ...       62
Average number of grid points per atom       ...     1092
Average number of shells per batch           ...    51.61 (75.90%)
Average number of basis functions per batch  ...   128.52 (80.32%)
Average number of large shells per batch     ...    42.77 (82.88%)
Average number of large basis fcns per batch ...   107.42 (83.58%)
Maximum spatial batch extension              ...  19.49, 15.53, 22.03 au
Average spatial batch extension              ...   0.75,  0.74,  0.75 au

Time for grid setup =    0.029 sec

------------------------------
INITIAL GUESS: MODEL POTENTIAL
------------------------------
Loading Hartree-Fock densities                     ... done
Calculating cut-offs                               ... done
Setting up the integral package                    ... done
Initializing the effective Hamiltonian             ... done
Starting the Coulomb interaction                   ... done (   0.0 sec)
Reading the grid                                   ... done
Mapping shells                                     ... done
Starting the XC term evaluation                    ... done (   0.0 sec)
  promolecular density results
     # of electrons  =     31.999798717
     EX              =    -25.233661452
     EC              =     -1.034118823
     EX+EC           =    -26.267780275
Transforming the Hamiltonian                       ... done (   0.0 sec)
Diagonalizing the Hamiltonian                      ... done (   0.0 sec)
Back transforming the eigenvectors                 ... done (   0.0 sec)
Now organizing SCF variables                       ... done
                      ------------------
                      INITIAL GUESS DONE (   0.1 sec)
                      ------------------
--------------
SCF ITERATIONS
--------------
ITER       Energy         Delta-E        Max-DP      RMS-DP      [F,P]     Damp
               ***  Starting incremental Fock matrix formation  ***
  0   -192.8345052007   0.000000000000 0.11402234  0.00243048  0.2495784 0.7000
  1   -192.9138208584  -0.079315657705 0.11108137  0.00210318  0.0987367 0.7000
                               ***Turning on DIIS***
  2   -192.9443321052  -0.030511246805 0.13218926  0.00292861  0.0447946 0.0000
  3   -192.9914554041  -0.047123298904 0.11241957  0.00191298  0.0567952 0.0000
  4   -193.0022497635  -0.010794359337 0.03312612  0.00058653  0.0144209 0.0000
  5   -193.0030556138  -0.000805850331 0.01543699  0.00026705  0.0043846 0.0000
                      *** Initiating the SOSCF procedure ***
                           *** Shutting down DIIS ***
                      *** Re-Reading the Fockian *** 
                      *** Removing any level shift *** 
ITER      Energy       Delta-E        Grad      Rot      Max-DP    RMS-DP
  6   -193.00309135  -0.0000357362  0.000396  0.000396  0.010527  0.000184
               *** Restarting incremental Fock matrix formation ***
  7   -193.00309366  -0.0000023148  0.000096  0.000270  0.000163  0.000006
  8   -193.00309355   0.0000001158  0.000183  0.000182  0.000406  0.000008
  9   -193.00309375  -0.0000002018  0.000014  0.000026  0.000032  0.000001
 10   -193.00309375   0.0000000019  0.000016  0.000014  0.000019  0.000001
                  ***Gradient check signals convergence***
              ***Rediagonalizing the Fockian in SOSCF/NRSCF***

               *****************************************************
               *                     SUCCESS                       *
               *           SCF CONVERGED AFTER  11 CYCLES          *
               *****************************************************

Setting up the final grid:

General Integration Accuracy     IntAcc      ...  4.670
Radial Grid Type                 RadialGrid  ... Gauss-Chebyshev
Angular Grid (max. acc.)         AngularGrid ... Lebedev-302
Angular grid pruning method      GridPruning ... 3 (G Style)
Weight generation scheme         WeightScheme... Becke
Basis function cutoff            BFCut       ...    1.0000e-11
Integration weight cutoff        WCut        ...    1.0000e-14
Grids for H and He will be reduced by one unit

# of grid points (after initial pruning)     ...  45212 (   0.0 sec)
# of grid points (after weights+screening)   ...  42622 (   0.0 sec)
nearest neighbour list constructed           ...    0.0 sec
Grid point re-assignment to atoms done       ...    0.0 sec
Grid point division into batches done        ...    0.1 sec
Reduced shell lists constructed in    0.2 sec

Total number of grid points                  ...    42622
Total number of batches                      ...      672
Average number of points per batch           ...       63
Average number of grid points per atom       ...     4262
Average number of shells per batch           ...    47.91 (70.46%)
Average number of basis functions per batch  ...   120.07 (75.04%)
Average number of large shells per batch     ...    39.12 (81.64%)
Average number of large basis fcns per batch ...    97.49 (81.19%)
Maximum spatial batch extension              ...  15.58, 14.28, 15.53 au
Average spatial batch extension              ...   0.50,  0.49,  0.50 au

Final grid set up in    0.2 sec
Final integration                            ... done (   0.1 sec)
Change in XC energy                          ...     0.000092312
Integrated number of electrons               ...    31.999976243
Previous integrated no of electrons          ...    32.000367951

----------------
TOTAL SCF ENERGY
----------------

Total Energy       :         -193.00300144 Eh           -5251.87867 eV

Components:
Nuclear Repulsion  :          119.89553829 Eh            3262.52346 eV
Electronic Energy  :         -312.89853973 Eh           -8514.40213 eV
One Electron Energy:         -498.40436028 Eh          -13562.27214 eV
Two Electron Energy:          185.50582055 Eh            5047.87001 eV

Virial components:
Potential Energy   :         -385.12926069 Eh          -10479.89997 eV
Kinetic Energy     :          192.12625925 Eh            5228.02130 eV
Virial Ratio       :            2.00456336


DFT components:
N(Alpha)           :       15.999988121599 electrons
N(Beta)            :       15.999988121599 electrons
N(Total)           :       31.999976243199 electrons
E(X)               :      -19.367260112974 Eh       
E(C)               :       -1.042399287826 Eh       
E(XC)              :      -20.409659400799 Eh       
DFET-embed. en.    :        0.000000000000 Eh       

---------------
SCF CONVERGENCE
---------------

  Last Energy change         ...   -8.1750e-09  Tolerance :   1.0000e-08
  Last MAX-Density change    ...    9.6139e-07  Tolerance :   1.0000e-07
  Last RMS-Density change    ...    3.7696e-08  Tolerance :   5.0000e-09
  Last Orbital Gradient      ...    4.2406e-07  Tolerance :   1.0000e-05
  Last Orbital Rotation      ...    8.1250e-07  Tolerance :   1.0000e-05

             **** THE GBW FILE WAS UPDATED (temp.gbw) ****
             **** DENSITY FILE WAS UPDATED (temp.scfp) ****
             **** ENERGY FILE WAS UPDATED (temp.en.tmp) ****
             **** THE GBW FILE WAS UPDATED (temp.gbw) ****
             **** DENSITY FILE WAS UPDATED (temp.scfp) ****
----------------
ORBITAL ENERGIES
----------------

  NO   OCC          E(Eh)            E(eV) 
   0   2.0000     -19.192424      -522.2524 
   1   2.0000     -10.313410      -280.6422 
   2   2.0000     -10.227054      -278.2923 
   3   2.0000     -10.226709      -278.2829 
   4   2.0000      -1.074766       -29.2459 
   5   2.0000      -0.797468       -21.7002 
   6   2.0000      -0.736103       -20.0304 
   7   2.0000      -0.552457       -15.0331 
   8   2.0000      -0.480854       -13.0847 
   9   2.0000      -0.479243       -13.0409 
  10   2.0000      -0.470983       -12.8161 
  11   2.0000      -0.418527       -11.3887 
  12   2.0000      -0.412583       -11.2270 
  13   2.0000      -0.394556       -10.7364 
  14   2.0000      -0.367555       -10.0017 
  15   2.0000      -0.265149        -7.2151 
  16   0.0000      -0.011489        -0.3126 
  17   0.0000       0.036354         0.9893 
  18   0.0000       0.090016         2.4494 
  19   0.0000       0.104837         2.8528 
  20   0.0000       0.108359         2.9486 
  21   0.0000       0.133642         3.6366 
  22   0.0000       0.137673         3.7463 
  23   0.0000       0.140952         3.8355 
  24   0.0000       0.171019         4.6537 
  25   0.0000       0.188835         5.1384 
  26   0.0000       0.211621         5.7585 
  27   0.0000       0.223548         6.0831 
  28   0.0000       0.227194         6.1823 
  29   0.0000       0.295481         8.0404 
  30   0.0000       0.304762         8.2930 
  31   0.0000       0.311829         8.4853 
  32   0.0000       0.376043        10.2327 
  33   0.0000       0.380346        10.3498 
  34   0.0000       0.412483        11.2242 
  35   0.0000       0.419545        11.4164 
  36   0.0000       0.438977        11.9452 
  37   0.0000       0.443354        12.0643 
  38   0.0000       0.453414        12.3380 
  39   0.0000       0.464003        12.6262 
  40   0.0000       0.465647        12.6709 
  41   0.0000       0.495789        13.4911 
  42   0.0000       0.564219        15.3532 
  43   0.0000       0.572622        15.5818 
  44   0.0000       0.588062        16.0020 
  45   0.0000       0.616892        16.7865 
  46   0.0000       0.664942        18.0940 
  47   0.0000       0.676999        18.4221 
  48   0.0000       0.737877        20.0787 
  49   0.0000       0.801076        21.7984 
  50   0.0000       0.824944        22.4479 
  51   0.0000       0.839983        22.8571 
  52   0.0000       0.907081        24.6829 
  53   0.0000       0.947286        25.7770 
  54   0.0000       0.977475        26.5984 
  55   0.0000       0.985269        26.8105 
  56   0.0000       1.002920        27.2908 
  57   0.0000       1.053742        28.6738 
  58   0.0000       1.112958        30.2851 
  59   0.0000       1.115556        30.3558 
  60   0.0000       1.139601        31.0101 
  61   0.0000       1.233886        33.5757 
  62   0.0000       1.398927        38.0667 
  63   0.0000       1.406394        38.2699 
  64   0.0000       1.449696        39.4482 
  65   0.0000       1.502485        40.8847 
  66   0.0000       1.509403        41.0729 
  67   0.0000       1.518857        41.3302 
  68   0.0000       1.531402        41.6716 
  69   0.0000       1.536676        41.8151 
  70   0.0000       1.564013        42.5589 
  71   0.0000       1.566678        42.6315 
  72   0.0000       1.584516        43.1169 
  73   0.0000       1.639420        44.6109 
  74   0.0000       1.657809        45.1113 
  75   0.0000       1.709232        46.5106 
  76   0.0000       1.854687        50.4686 
  77   0.0000       1.869289        50.8659 
  78   0.0000       1.880944        51.1831 
  79   0.0000       1.959965        53.3334 
  80   0.0000       2.014047        54.8050 
  81   0.0000       2.025170        55.1077 
  82   0.0000       2.046268        55.6818 
  83   0.0000       2.092464        56.9389 
  84   0.0000       2.118838        57.6565 
  85   0.0000       2.173608        59.1469 
  86   0.0000       2.174915        59.1824 
  87   0.0000       2.203682        59.9652 
  88   0.0000       2.216480        60.3135 
  89   0.0000       2.329812        63.3974 
  90   0.0000       2.350774        63.9678 
  91   0.0000       2.353375        64.0386 
  92   0.0000       2.395730        65.1911 
  93   0.0000       2.458886        66.9097 
  94   0.0000       2.481680        67.5300 
  95   0.0000       2.523359        68.6641 
  96   0.0000       2.528194        68.7957 
  97   0.0000       2.560492        69.6745 
  98   0.0000       2.562755        69.7361 
  99   0.0000       2.658309        72.3363 
 100   0.0000       2.706493        73.6474 
 101   0.0000       2.758487        75.0622 
 102   0.0000       2.787437        75.8500 
 103   0.0000       2.813764        76.5664 
 104   0.0000       2.850179        77.5573 
 105   0.0000       2.913702        79.2859 
 106   0.0000       2.975903        80.9784 
 107   0.0000       2.980927        81.1152 
 108   0.0000       3.013364        81.9978 
 109   0.0000       3.074660        83.6658 
 110   0.0000       3.081334        83.8474 
 111   0.0000       3.103417        84.4483 
 112   0.0000       3.111193        84.6599 
 113   0.0000       3.127224        85.0961 
 114   0.0000       3.146107        85.6099 
 115   0.0000       3.231638        87.9373 
 116   0.0000       3.292069        89.5818 
 117   0.0000       3.304365        89.9163 
 118   0.0000       3.316510        90.2468 
 119   0.0000       3.377510        91.9067 
 120   0.0000       3.385949        92.1364 
 121   0.0000       3.426671        93.2445 
 122   0.0000       3.455747        94.0357 
 123   0.0000       3.493733        95.0693 
 124   0.0000       3.530622        96.0731 
 125   0.0000       3.543658        96.4278 
 126   0.0000       3.679092       100.1132 
 127   0.0000       3.767135       102.5090 
 128   0.0000       3.865294       105.1800 
 129   0.0000       3.866797       105.2209 
 130   0.0000       3.902490       106.1921 
 131   0.0000       3.983817       108.4052 
 132   0.0000       3.988341       108.5283 
 133   0.0000       4.013075       109.2013 
 134   0.0000       4.069331       110.7321 
 135   0.0000       4.324896       117.6864 
 136   0.0000       4.367644       118.8496 
 137   0.0000       4.385756       119.3425 
 138   0.0000       4.406192       119.8986 
 139   0.0000       4.449326       121.0723 
 140   0.0000       4.533827       123.3717 
 141   0.0000       4.668261       127.0298 
 142   0.0000       4.774495       129.9206 
 143   0.0000       4.793118       130.4274 
 144   0.0000       5.210335       141.7804 
 145   0.0000       5.213946       141.8787 
 146   0.0000       5.622529       152.9968 
 147   0.0000       5.705621       155.2578 
 148   0.0000       6.171039       167.9225 
 149   0.0000       6.366761       173.2484 
 150   0.0000       6.408324       174.3794 
 151   0.0000       6.530939       177.7159 
 152   0.0000       6.556428       178.4095 
 153   0.0000       6.830097       185.8564 
 154   0.0000       7.014295       190.8687 
 155   0.0000       7.096251       193.0988 
 156   0.0000      22.390126       609.2663 
 157   0.0000      22.404379       609.6542 
 158   0.0000      23.059088       627.4697 
 159   0.0000      43.927375      1195.3246 

                    ********************************
                    * MULLIKEN POPULATION ANALYSIS *
                    ********************************

-----------------------
MULLIKEN ATOMIC CHARGES
-----------------------
   0 O :   -0.288433
   1 C :    0.176069
   2 C :   -0.362836
   3 C :   -0.339626
   4 H :    0.140491
   5 H :    0.138059
   6 H :    0.137541
   7 H :    0.139955
   8 H :    0.130861
   9 H :    0.127920
Sum of atomic charges:    0.0000000

--------------------------------
MULLIKEN REDUCED ORBITAL CHARGES
--------------------------------
  0 O s       :     3.809834  s :     3.809834
      pz      :     1.770578  p :     4.444697
      px      :     1.325441
      py      :     1.348678
      dz2     :     0.003291  d :     0.032054
      dxz     :     0.005233
      dyz     :     0.003994
      dx2y2   :     0.011662
      dxy     :     0.007874
      f0      :     0.000260  f :     0.001848
      f+1     :     0.000226
      f-1     :     0.000177
      f+2     :     0.000051
      f-2     :     0.000315
      f+3     :     0.000478
      f-3     :     0.000340
  1 C s       :     3.178483  s :     3.178483
      pz      :     0.919613  p :     2.409940
      px      :     0.747619
      py      :     0.742708
      dz2     :     0.036417  d :     0.217627
      dxz     :     0.059099
      dyz     :     0.047243
      dx2y2   :     0.051971
      dxy     :     0.022897
      f0      :     0.003661  f :     0.017881
      f+1     :     0.001747
      f-1     :     0.001994
      f+2     :     0.001321
      f-2     :     0.003664
      f+3     :     0.003131
      f-3     :     0.002363
  2 C s       :     3.198639  s :     3.198639
      pz      :     1.027266  p :     3.113469
      px      :     1.050539
      py      :     1.035663
      dz2     :     0.015446  d :     0.047568
      dxz     :     0.007182
      dyz     :     0.007788
      dx2y2   :     0.013558
      dxy     :     0.003594
      f0      :     0.000347  f :     0.003160
      f+1     :     0.000583
      f-1     :     0.000669
      f+2     :     0.000397
      f-2     :     0.000293
      f+3     :     0.000539
      f-3     :     0.000331
  3 C s       :     3.186278  s :     3.186278
      pz      :     0.988361  p :     3.104932
      px      :     1.057298
      py      :     1.059273
      dz2     :     0.013187  d :     0.045288
      dxz     :     0.008747
      dyz     :     0.009543
      dx2y2   :     0.010045
      dxy     :     0.003766
      f0      :     0.000611  f :     0.003127
      f+1     :     0.000758
      f-1     :     0.000376
      f+2     :     0.000347
      f-2     :     0.000430
      f+3     :     0.000085
      f-3     :     0.000520
  4 H s       :     0.837689  s :     0.837689
      pz      :     0.011166  p :     0.021820
      px      :     0.005856
      py      :     0.004799
  5 H s       :     0.840727  s :     0.840727
      pz      :     0.004487  p :     0.021214
      px      :     0.012086
      py      :     0.004642
  6 H s       :     0.841147  s :     0.841147
      pz      :     0.004515  p :     0.021313
      px      :     0.004799
      py      :     0.011999
  7 H s       :     0.838231  s :     0.838231
      pz      :     0.008612  p :     0.021814
      px      :     0.006334
      py      :     0.006868
  8 H s       :     0.847733  s :     0.847733
      pz      :     0.004493  p :     0.021406
      px      :     0.011623
      py      :     0.005290
  9 H s       :     0.850550  s :     0.850550
      pz      :     0.005210  p :     0.021530
      px      :     0.004634
      py      :     0.011686


                     *******************************
                     * LOEWDIN POPULATION ANALYSIS *
                     *******************************

----------------------
LOEWDIN ATOMIC CHARGES
----------------------
   0 O :    0.132469
   1 C :   -0.397581
   2 C :   -0.275302
   3 C :   -0.273717
   4 H :    0.133124
   5 H :    0.135489
   6 H :    0.139102
   7 H :    0.133151
   8 H :    0.138268
   9 H :    0.134996

-------------------------------
LOEWDIN REDUCED ORBITAL CHARGES
-------------------------------
  0 O s       :     3.398852  s :     3.398852
      pz      :     1.633907  p :     4.391843
      px      :     1.389080
      py      :     1.368856
      dz2     :     0.008960  d :     0.070656
      dxz     :     0.014953
      dyz     :     0.010105
      dx2y2   :     0.013559
      dxy     :     0.023080
      f0      :     0.000829  f :     0.006180
      f+1     :     0.000745
      f-1     :     0.000568
      f+2     :     0.000123
      f-2     :     0.001394
      f+3     :     0.001165
      f-3     :     0.001355
  1 C s       :     2.775516  s :     2.775516
      pz      :     1.011898  p :     2.713219
      px      :     0.867321
      py      :     0.834001
      dz2     :     0.147141  d :     0.796241
      dxz     :     0.211604
      dyz     :     0.166590
      dx2y2   :     0.140828
      dxy     :     0.130079
      f0      :     0.025188  f :     0.112605
      f+1     :     0.011110
      f-1     :     0.013611
      f+2     :     0.008107
      f-2     :     0.023007
      f+3     :     0.016919
      f-3     :     0.014663
  2 C s       :     2.836616  s :     2.836616
      pz      :     1.057619  p :     3.190009
      px      :     1.067062
      py      :     1.065328
      dz2     :     0.071884  d :     0.225569
      dxz     :     0.035516
      dyz     :     0.038715
      dx2y2   :     0.061810
      dxy     :     0.017643
      f0      :     0.002517  f :     0.023108
      f+1     :     0.004021
      f-1     :     0.004369
      f+2     :     0.002374
      f-2     :     0.004501
      f+3     :     0.003220
      f-3     :     0.002107
  3 C s       :     2.836441  s :     2.836441
      pz      :     1.050431  p :     3.188987
      px      :     1.070228
      py      :     1.068329
      dz2     :     0.065129  d :     0.225131
      dxz     :     0.047247
      dyz     :     0.047961
      dx2y2   :     0.046166
      dxy     :     0.018627
      f0      :     0.004439  f :     0.023158
      f+1     :     0.004787
      f-1     :     0.003372
      f+2     :     0.002197
      f-2     :     0.004238
      f+3     :     0.000998
      f-3     :     0.003127
  4 H s       :     0.804031  s :     0.804031
      pz      :     0.030851  p :     0.062845
      px      :     0.017308
      py      :     0.014686
  5 H s       :     0.801945  s :     0.801945
      pz      :     0.013036  p :     0.062566
      px      :     0.035510
      py      :     0.014021
  6 H s       :     0.798284  s :     0.798284
      pz      :     0.013982  p :     0.062613
      px      :     0.014734
      py      :     0.033897
  7 H s       :     0.803991  s :     0.803991
      pz      :     0.023678  p :     0.062858
      px      :     0.019256
      py      :     0.019924
  8 H s       :     0.799073  s :     0.799073
      pz      :     0.013275  p :     0.062659
      px      :     0.033296
      py      :     0.016088
  9 H s       :     0.802453  s :     0.802453
      pz      :     0.014288  p :     0.062551
      px      :     0.013926
      py      :     0.034338


                      *****************************
                      * MAYER POPULATION ANALYSIS *
                      *****************************

  NA   - Mulliken gross atomic population
  ZA   - Total nuclear charge
  QA   - Mulliken gross atomic charge
  VA   - Mayer's total valence
  BVA  - Mayer's bonded valence
  FA   - Mayer's free valence

  ATOM       NA         ZA         QA         VA         BVA        FA
  0 O      8.2884     8.0000    -0.2884     2.1615     2.1615    -0.0000
  1 C      5.8239     6.0000     0.1761     4.1535     4.1535     0.0000
  2 C      6.3628     6.0000    -0.3628     3.7469     3.7469     0.0000
  3 C      6.3396     6.0000    -0.3396     3.7408     3.7408     0.0000
  4 H      0.8595     1.0000     0.1405     0.9983     0.9983     0.0000
  5 H      0.8619     1.0000     0.1381     0.9690     0.9690     0.0000
  6 H      0.8625     1.0000     0.1375     0.9731     0.9731     0.0000
  7 H      0.8600     1.0000     0.1400     0.9974     0.9974     0.0000
  8 H      0.8691     1.0000     0.1309     0.9766     0.9766     0.0000
  9 H      0.8721     1.0000     0.1279     0.9728     0.9728     0.0000

  Mayer bond orders larger than 0.100000
B(  0-O ,  1-C ) :   2.1427 B(  1-C ,  2-C ) :   0.9858 B(  1-C ,  3-C ) :   0.9839 
B(  2-C ,  4-H ) :   0.9655 B(  2-C ,  5-H ) :   0.9437 B(  2-C ,  6-H ) :   0.9420 
B(  3-C ,  7-H ) :   0.9659 B(  3-C ,  8-H ) :   0.9402 B(  3-C ,  9-H ) :   0.9432 


-------
TIMINGS
-------

Total SCF time: 0 days 0 hours 0 min 8 sec 

Total time                  ....       8.594 sec
Sum of individual times     ....       8.417 sec  ( 97.9%)

Fock matrix formation       ....       8.017 sec  ( 93.3%)
  XC integration            ....       0.504 sec  (  6.3% of F)
    Basis function eval.    ....       0.078 sec  ( 15.6% of XC)
    Density eval.           ....       0.072 sec  ( 14.2% of XC)
    XC-Functional eval.     ....       0.016 sec  (  3.2% of XC)
    XC-Potential eval.      ....       0.144 sec  ( 28.6% of XC)
Diagonalization             ....       0.021 sec  (  0.2%)
Density matrix formation    ....       0.005 sec  (  0.1%)
Population analysis         ....       0.003 sec  (  0.0%)
Initial guess               ....       0.110 sec  (  1.3%)
Orbital Transformation      ....       0.000 sec  (  0.0%)
Orbital Orthonormalization  ....       0.000 sec  (  0.0%)
DIIS solution               ....       0.009 sec  (  0.1%)
SOSCF solution              ....       0.011 sec  (  0.1%)
Grid generation             ....       0.241 sec  (  2.8%)

-------------------------   --------------------
FINAL SINGLE POINT ENERGY      -193.003001444930
-------------------------   --------------------


                            ***************************************
                            *     ORCA property calculations      *
                            ***************************************

                                    ---------------------
                                    Active property flags
                                    ---------------------
   (+) Dipole Moment


------------------------------------------------------------------------------
                       ORCA ELECTRIC PROPERTIES CALCULATION
------------------------------------------------------------------------------

Dipole Moment Calculation                       ... on
Quadrupole Moment Calculation                   ... off
Polarizability Calculation                      ... off
GBWName                                         ... temp.gbw
Electron density file                           ... temp.scfp
The origin for moment calculation is the CENTER OF MASS  = (-1.807188, -3.558568 -0.277312)

-------------
DIPOLE MOMENT
-------------
                                X             Y             Z
Electronic contribution:      2.94114       2.47789       0.54534
Nuclear contribution   :     -3.83286      -3.22679      -0.71067
                        -----------------------------------------
Total Dipole Moment    :     -0.89172      -0.74890      -0.16532
                        -----------------------------------------
Magnitude (a.u.)       :      1.17615
Magnitude (Debye)      :      2.98954



--------------------
Rotational spectrum 
--------------------
 
Rotational constants in cm-1:     0.341602     0.286936     0.165457 
Rotational constants in MHz : 10240.981080  8602.112116  4960.284316 

 Dipole components along the rotational axes: 
x,y,z [a.u.] :    -0.000524    -1.176153    -0.000164 
x,y,z [Debye]:    -0.001333    -2.989544    -0.000416 

 

Timings for individual modules:

Sum of individual times         ...        9.685 sec (=   0.161 min)
GTO integral calculation        ...        0.849 sec (=   0.014 min)   8.8 %
SCF iterations                  ...        8.836 sec (=   0.147 min)  91.2 %
                             ****ORCA TERMINATED NORMALLY****
TOTAL RUN TIME: 0 days 0 hours 0 minutes 10 seconds 56 msec
