[Molden Format]
[Title]
 Molden file created by orca_2mkl for BaseName=system

[Atoms] AU
O    1   8          0.6573034412        18.6112323916         4.7226504861 
C    2   6          1.2243970259        17.6725317215         2.7255047598 
C    3   6          0.8571495387        19.0520979397         0.2623412305 
C    4   6          2.3344334953        15.0560358138         2.5590784689 
H    5   1          0.2758811183        20.9923496813         0.6178988718 
H    6   1          2.5898432104        19.0221797956        -0.8636804322 
H    7   1         -0.5978999001        18.0955884906        -0.8545625037 
H    8   1          2.3258428003        14.1660258273         4.4127807535 
H    9   1          4.2765749630        15.1680058667         1.8587610815 
H   10   1          1.2799493050        13.9005211952         1.2088634770 
[GTO]
  1 0
s   6 1.0 
    27032.3800000000         0.8598581393
     4052.3870000000         1.6055304059
      922.3272000000         2.7458780898
      261.2407000000         4.2987677378
       85.3546400000         5.8797670930
       31.0350400000         6.3163984679
s   2 1.0 
       12.2608600000         2.9812145398
        4.9987080000         0.9419560379
s   1 1.0 
        1.1703110000         0.8019292557
s   1 1.0 
        0.4647474000         0.4011647998
s   1 1.0 
        0.1850454000         0.2010799703
p   4 1.0 
       63.2749500000         3.0572013698
       14.6270500000         3.3844845670
        4.4501220000         2.9474258212
        1.5275800000         1.7118271901
p   1 1.0 
        0.5293512000         0.6436058239
p   1 1.0 
        0.1747842000         0.1610897108
d   1 1.0 
        2.3140000000        12.3767310624
d   1 1.0 
        0.6450000000         1.3234257612
f   1 1.0 
        1.4280000000        12.7097950062

  2 0
s   6 1.0 
    13575.3500000000         0.5435905009
     2035.2330000000         1.0145543008
      463.2256000000         1.7315731015
      131.2002000000         2.6910371555
       42.8530200000         3.6044547316
       15.5841900000         3.7025565440
s   2 1.0 
        6.2067140000         1.8383540114
        2.5764900000         0.5447576606
s   1 1.0 
        0.5769634000         0.4718145074
s   1 1.0 
        0.2297283000         0.2364944571
s   1 1.0 
        0.0951644400         0.1221141848
p   4 1.0 
       34.6972300000         1.3596652360
        7.9582620000         1.4512590746
        2.3780830000         1.2709231872
        0.8143321000         0.8025721831
p   1 1.0 
        0.2888755000         0.3018759228
p   1 1.0 
        0.1005682000         0.0807264648
d   1 1.0 
        1.0970000000         3.3522135855
d   1 1.0 
        0.3180000000         0.3838994974
f   1 1.0 
        0.7610000000         3.0840084332

  3 0
s   6 1.0 
    13575.3500000000         0.5435905009
     2035.2330000000         1.0145543008
      463.2256000000         1.7315731015
      131.2002000000         2.6910371555
       42.8530200000         3.6044547316
       15.5841900000         3.7025565440
s   2 1.0 
        6.2067140000         1.8383540114
        2.5764900000         0.5447576606
s   1 1.0 
        0.5769634000         0.4718145074
s   1 1.0 
        0.2297283000         0.2364944571
s   1 1.0 
        0.0951644400         0.1221141848
p   4 1.0 
       34.6972300000         1.3596652360
        7.9582620000         1.4512590746
        2.3780830000         1.2709231872
        0.8143321000         0.8025721831
p   1 1.0 
        0.2888755000         0.3018759228
p   1 1.0 
        0.1005682000         0.0807264648
d   1 1.0 
        1.0970000000         3.3522135855
d   1 1.0 
        0.3180000000         0.3838994974
f   1 1.0 
        0.7610000000         3.0840084332

  4 0
s   6 1.0 
    13575.3500000000         0.5435905009
     2035.2330000000         1.0145543008
      463.2256000000         1.7315731015
      131.2002000000         2.6910371555
       42.8530200000         3.6044547316
       15.5841900000         3.7025565440
s   2 1.0 
        6.2067140000         1.8383540114
        2.5764900000         0.5447576606
s   1 1.0 
        0.5769634000         0.4718145074
s   1 1.0 
        0.2297283000         0.2364944571
s   1 1.0 
        0.0951644400         0.1221141848
p   4 1.0 
       34.6972300000         1.3596652360
        7.9582620000         1.4512590746
        2.3780830000         1.2709231872
        0.8143321000         0.8025721831
p   1 1.0 
        0.2888755000         0.3018759228
p   1 1.0 
        0.1005682000         0.0807264648
d   1 1.0 
        1.0970000000         3.3522135855
d   1 1.0 
        0.3180000000         0.3838994974
f   1 1.0 
        0.7610000000         3.0840084332

  5 0
s   3 1.0 
       34.0613400000         0.2556298765
        5.1235750000         0.4613598729
        1.1646630000         0.6811216893
s   1 1.0 
        0.3272304000         0.3083545241
s   1 1.0 
        0.1030724000         0.1296483171
p   1 1.0 
        0.8000000000         1.0784563492

  6 0
s   3 1.0 
       34.0613400000         0.2556298765
        5.1235750000         0.4613598729
        1.1646630000         0.6811216893
s   1 1.0 
        0.3272304000         0.3083545241
s   1 1.0 
        0.1030724000         0.1296483171
p   1 1.0 
        0.8000000000         1.0784563492

  7 0
s   3 1.0 
       34.0613400000         0.2556298765
        5.1235750000         0.4613598729
        1.1646630000         0.6811216893
s   1 1.0 
        0.3272304000         0.3083545241
s   1 1.0 
        0.1030724000         0.1296483171
p   1 1.0 
        0.8000000000         1.0784563492

  8 0
s   3 1.0 
       34.0613400000         0.2556298765
        5.1235750000         0.4613598729
        1.1646630000         0.6811216893
s   1 1.0 
        0.3272304000         0.3083545241
s   1 1.0 
        0.1030724000         0.1296483171
p   1 1.0 
        0.8000000000         1.0784563492

  9 0
s   3 1.0 
       34.0613400000         0.2556298765
        5.1235750000         0.4613598729
        1.1646630000         0.6811216893
s   1 1.0 
        0.3272304000         0.3083545241
s   1 1.0 
        0.1030724000         0.1296483171
p   1 1.0 
        0.8000000000         1.0784563492

 10 0
s   3 1.0 
       34.0613400000         0.2556298765
        5.1235750000         0.4613598729
        1.1646630000         0.6811216893
s   1 1.0 
        0.3272304000         0.3083545241
s   1 1.0 
        0.1030724000         0.1296483171
p   1 1.0 
        0.8000000000         1.0784563492

[5D]
[7F]
[9G]
[MO]
 Sym=     1a
 Ene= -1.92055742392708E+01
 Spin= Alpha
 Occup= 2.000000
  1      -0.435382921885
  2      -0.639604945557
  3      -0.034927001047
  4       0.028847233757
  5      -0.010124362980
  6      -0.000561899751
  7       0.000886851296
  8       0.001832135497
  9       0.001593649921
 10      -0.002612710654
 11      -0.005502753298
 12      -0.000137228656
 13       0.000221091667
 14       0.000433488401
 15      -0.000194303089
 16       0.000125347458
 17      -0.000225683362
 18      -0.000009271518
 19       0.000016791184
 20       0.000960053894
 21      -0.000589170980
 22       0.001004915370
 23      -0.000063341348
 24      -0.000191069998
 25      -0.000068184122
 26       0.000080310674
 27      -0.000124542193
 28       0.000037574893
 29       0.000066348640
 30       0.000020492562
 31      -0.000001121321
 32      -0.000043130096
 33       0.000258640220
 34      -0.000762401650
 35      -0.004330048290
 36       0.001413208016
 37       0.000162957410
 38      -0.000267495982
 39      -0.000572151370
 40       0.002117633747
 41      -0.003524079933
 42      -0.007479096201
 43      -0.001255230205
 44       0.002056378704
 45       0.004497088396
 46      -0.000249729557
 47       0.000127729106
 48      -0.000213086006
 49       0.000055652654
 50       0.000103407394
 51      -0.002927030717
 52       0.001876020376
 53      -0.003315447366
 54      -0.000099275976
 55       0.000241928009
 56      -0.000099693867
 57      -0.000015939308
 58       0.000125508171
 59       0.000103037339
 60       0.000103262738
 61       0.000128034633
 62      -0.000033723655
 63      -0.000017473274
 64       0.000084055808
 65      -0.000349917071
 66      -0.001160816022
 67       0.001930163764
 68      -0.000025818494
 69       0.000020448612
 70      -0.000193160456
 71       0.000049043138
 72       0.000876415058
 73      -0.000490734508
 74       0.000378850086
 75      -0.000791424586
 76      -0.000059337037
 77      -0.000083361299
 78       0.000004992635
 79       0.000030099690
 80       0.000043504443
 81       0.000051606055
 82      -0.000450433826
 83      -0.000208690339
 84       0.000308499746
 85      -0.000837559852
 86      -0.000819988566
 87      -0.000061737555
 88      -0.000053370462
 89       0.000086862455
 90      -0.000046955332
 91      -0.000040984106
 92       0.000063880926
 93      -0.000039833066
 94      -0.000017714357
 95       0.000085217976
 96      -0.000353220772
 97      -0.001183501642
 98       0.001797830332
 99       0.000098877745
100      -0.000150208430
101      -0.000081572430
102       0.000040798804
103      -0.000943456544
104       0.000389718822
105      -0.000122156794
106       0.000373214589
107      -0.000755843021
108      -0.000016166192
109       0.000016160100
110      -0.000022782060
111       0.000071053312
112       0.000080565416
113       0.001020998562
114       0.000111158530
115      -0.000753805626
116      -0.000305411747
117      -0.000151468292
118       0.000063460929
119      -0.000042059821
120       0.000098231043
121       0.000069225921
122       0.000055317219
123      -0.000001531966
124       0.000029509528
125      -0.000127805290
126      -0.001060293819
127       0.000163281635
128      -0.000027419666
129       0.000203414815
130      -0.000034185400
131       0.000000594272
132       0.000495289845
133      -0.000362713374
134      -0.000032604584
135       0.000100570586
136       0.000158359884
137       0.000060363830
138       0.000884119956
139      -0.000415047917
140       0.000050648002
141       0.000087643592
142       0.000187273770
143      -0.000130332166
144      -0.001079518527
145       0.000167451170
146       0.000005423097
147      -0.000154091681
148       0.000145325155
149       0.000055527035
150       0.000874158257
151      -0.000402874891
152      -0.000137638738
153       0.000070001082
154       0.000149702860
155       0.000004688466
156       0.000548852262
157      -0.000354694875
158      -0.000054439642
159       0.000065147318
160       0.000176369470
 Sym=     1a
 Ene= -1.03220842344616E+01
 Spin= Alpha
 Occup= 2.000000
  1      -0.000084736785
  2      -0.000357270711
  3       0.003636113217
  4      -0.014931191055
  5       0.000083043488
  6       0.000171018768
  7      -0.000282912313
  8      -0.000601150490
  9      -0.002164730636
 10       0.003581550501
 11       0.007613394123
 12      -0.000043925504
 13       0.000077945527
 14       0.000160240146
 15      -0.000010632390
 16      -0.000020091195
 17       0.000081023178
 18       0.000094462235
 19       0.000084859207
 20      -0.001960128478
 21       0.001243112669
 22      -0.002248565380
 23      -0.000094231678
 24       0.000200449777
 25       0.000180332204
 26      -0.000267948072
 27       0.000491905632
 28      -0.000064688750
 29      -0.000165423889
 30       0.000003817218
 31      -0.000018905794
 32       0.467184814723
 33       0.608419841354
 34       0.038245635202
 35      -0.023337405626
 36       0.017954273817
 37      -0.000260893262
 38       0.000424094351
 39       0.000940931197
 40      -0.003689752538
 41       0.006143049953
 42       0.012946460800
 43       0.001575834099
 44      -0.002596746649
 45      -0.005485980855
 46       0.001399097319
 47      -0.000657082171
 48       0.000853619060
 49      -0.000693092549
 50      -0.000835263114
 51       0.003660594474
 52      -0.002869348523
 53       0.005966196341
 54       0.002007239242
 55       0.001319084089
 56       0.000705115233
 57      -0.000767852665
 58       0.001229247463
 59      -0.000371973884
 60      -0.000671365058
 61      -0.000218210282
 62       0.000004713182
 63       0.000572286197
 64       0.000852313683
 65      -0.000894917322
 66       0.008321812750
 67      -0.007708677013
 68       0.000039884666
 69      -0.000091539900
 70      -0.000023251959
 71       0.000163844672
 72      -0.001376690118
 73       0.004593235889
 74      -0.000800384474
 75       0.001488920931
 76      -0.002129716866
 77      -0.000104201144
 78      -0.000018678398
 79       0.000055851124
 80       0.000000013122
 81      -0.000018766276
 82       0.001016889377
 83      -0.000110758022
 84       0.000107684026
 85       0.000307601991
 86       0.000343353710
 87      -0.000114077545
 88      -0.000222271243
 89       0.000706776115
 90       0.000208809100
 91       0.000113772347
 92      -0.000122736813
 93       0.000132849625
 94       0.000575936369
 95       0.000856651708
 96      -0.000905382031
 97       0.008404312620
 98      -0.007757391755
 99      -0.000006574672
100       0.000034888769
101      -0.000095808100
102      -0.001879181220
103       0.004246209054
104       0.001398365251
105       0.001267551213
106      -0.002394116629
107       0.000242507864
108       0.000060568036
109       0.000031716099
110      -0.000055636953
111       0.000050422782
112       0.000061900915
113      -0.000234552353
114      -0.000441120985
115       0.000977403033
116      -0.000114844207
117      -0.000261537449
118       0.000125607830
119      -0.000297360035
120       0.000470609611
121      -0.000040754214
122      -0.000056071869
123       0.000517004297
124      -0.000228675105
125       0.000005809078
126      -0.000238791278
127       0.000417002408
128      -0.000026870019
129       0.000059327024
130      -0.000358248351
131       0.000023178595
132      -0.000462948505
133       0.000122412342
134      -0.000093602086
135       0.000096539640
136      -0.000208081819
137      -0.000035233518
138      -0.000501945174
139      -0.000387604432
140       0.000014757424
141       0.000135864398
142      -0.000210575755
143       0.000005994224
144      -0.000233145453
145       0.000430499693
146       0.000163288011
147      -0.000295258018
148      -0.000139867737
149      -0.000030455636
150      -0.000503876408
151      -0.000341791209
152       0.000050664649
153      -0.000247197175
154      -0.000021938967
155       0.000018497432
156      -0.000473307478
157       0.000075178462
158       0.000153016765
159      -0.000197312934
160      -0.000003553673
 Sym=     1a
 Ene= -1.02174267775923E+01
 Spin= Alpha
 Occup= 2.000000
  1       0.000004675977
  2      -0.000054591064
  3       0.000621428936
  4      -0.002605043602
  5       0.000723184416
  6       0.000057662691
  7      -0.000152797190
  8      -0.000004555958
  9      -0.000480245888
 10       0.001157132138
 11       0.000268344766
 12       0.000024507838
 13      -0.000286619543
 14       0.000557241039
 15      -0.000027620536
 16      -0.000013404582
 17       0.000040589254
 18       0.000000154022
 19      -0.000008786780
 20       0.000224054933
 21       0.000076401930
 22      -0.000227053798
 23       0.000081747941
 24       0.000125760964
 25       0.000005224546
 26       0.000024864765
 27      -0.000069020382
 28      -0.000017246212
 29      -0.000004908300
 30       0.000006195800
 31      -0.000007507472
 32      -0.000641522596
 33      -0.000744327339
 34      -0.000026395477
 35       0.002855328350
 36      -0.009357233996
 37       0.000202051257
 38      -0.000494992188
 39       0.000136541725
 40      -0.001722723139
 41       0.004350046467
 42      -0.001196906947
 43      -0.002132668209
 44       0.005369169883
 45      -0.002744867924
 46      -0.000028800418
 47       0.000028043554
 48      -0.000021619409
 49       0.000111325015
 50       0.000117132377
 51       0.003883216183
 52      -0.000159310230
 53      -0.000633954366
 54       0.001492116528
 55       0.001571919058
 56      -0.000031038481
 57       0.000178347573
 58      -0.000383859384
 59      -0.000015080016
 60      -0.000064829261
 61      -0.000779067328
 62       0.000314200662
 63      -0.003591707541
 64      -0.004672716634
 65       0.000245615866
 66      -0.003602350056
 67      -0.004170195259
 68       0.000050863684
 69      -0.000101256779
 70       0.000035840109
 71      -0.000852777422
 72       0.002653638408
 73      -0.002081116802
 74      -0.000380160659
 75       0.002317983921
 76      -0.000600666509
 77      -0.000044136674
 78       0.000002780474
 79       0.000021278565
 80       0.000048616513
 81       0.000024814128
 82      -0.000113535550
 83      -0.000576066972
 84       0.001309053497
 85       0.000026045839
 86       0.000039822432
 87       0.000028554945
 88      -0.000034633365
 89       0.000062671879
 90       0.000085936459
 91       0.000100760943
 92      -0.000034026690
 93       0.000031397150
 94       0.467065924119
 95       0.608656209940
 96       0.034451564312
 97      -0.014148881923
 98       0.032582828478
 99      -0.000112112337
100       0.000395487128
101      -0.000081603785
102      -0.000187022036
103       0.000548307028
104       0.000133408992
105      -0.000910659905
106       0.003460718744
107      -0.000872589224
108       0.000063592412
109      -0.000025261284
110       0.000003527477
111      -0.000054858828
112      -0.000039157402
113      -0.000320447797
114      -0.000022153019
115       0.000346283733
116       0.000280516218
117       0.000206459194
118       0.000684962133
119      -0.000310932741
120      -0.001026690361
121      -0.000637772860
122      -0.000586206146
123      -0.000787837191
124       0.000064740328
125      -0.000067784834
126      -0.000829208596
127      -0.001013718553
128      -0.000048039720
129       0.000152089847
130      -0.000063849121
131       0.000027616097
132       0.000231732038
133       0.000188049606
134       0.000027049767
135       0.000057770955
136       0.000085637063
137       0.000034929477
138       0.000436110056
139       0.000808531454
140       0.000006615421
141       0.000015607574
142       0.000096483873
143      -0.000454392935
144      -0.001820648975
145      -0.003767313429
146      -0.000021114557
147      -0.000781930789
148       0.001725633336
149      -0.000434797996
150      -0.002753836399
151      -0.005338000079
152       0.001864752006
153       0.000029272467
154      -0.000699678820
155      -0.000436255981
156      -0.002642110134
157      -0.004967929056
158      -0.000942274931
159      -0.001142900137
160      -0.001317395850
 Sym=     1a
 Ene= -1.02167817412362E+01
 Spin= Alpha
 Occup= 2.000000
  1      -0.000004724135
  2       0.000055008598
  3      -0.000626981428
  4       0.002633758647
  5      -0.000705023106
  6       0.000014326768
  7      -0.000083445114
  8       0.000137882660
  9      -0.000049342127
 10       0.000453737226
 11      -0.001192415683
 12       0.000183716544
 13      -0.000582402212
 14      -0.000104631036
 15      -0.000039262767
 16      -0.000002804450
 17       0.000006416006
 18      -0.000023540805
 19      -0.000022535055
 20       0.000289089413
 21       0.000040942742
 22      -0.000139641512
 23       0.000099942233
 24       0.000112793439
 25       0.000011579257
 26      -0.000029827869
 27       0.000053415438
 28      -0.000002548078
 29      -0.000006445282
 30       0.000040691891
 31      -0.000018391244
 32       0.000647845067
 33       0.000751399066
 34       0.000017939904
 35      -0.002861688700
 36       0.009444050211
 37       0.000130996750
 38      -0.000374909774
 39       0.000369761456
 40      -0.001095792150
 41       0.003294008541
 42      -0.003238338454
 43      -0.001895743523
 44       0.004981668514
 45      -0.003260856329
 46       0.000120462741
 47      -0.000008436927
 48      -0.000043801456
 49      -0.000082037952
 50      -0.000074019469
 51       0.001844384763
 52       0.001329721100
 53      -0.003626815731
 54       0.000636362437
 55       0.001028143363
 56      -0.000324642364
 57      -0.000148421289
 58       0.000689860041
 59       0.000416036620
 60       0.000283640245
 61      -0.000144135556
 62       0.000134810383
 63      -0.467067277766
 64      -0.608660546049
 65      -0.034439969383
 66       0.014196456512
 67      -0.032401466755
 68      -0.000043275749
 69       0.000320705773
 70      -0.000282650507
 71       0.000033645249
 72       0.000166265229
 73      -0.000536851809
 74      -0.000394506892
 75       0.002686871337
 76      -0.002404998045
 77      -0.000046638782
 78       0.000028941641
 79      -0.000016686107
 80       0.000062489687
 81       0.000045923959
 82      -0.000066802146
 83      -0.000014269166
 84      -0.000054121440
 85      -0.000436038055
 86      -0.000366180286
 87      -0.000524072826
 88      -0.000228148554
 89       0.000693533322
 90       0.000907305767
 91       0.000550633068
 92       0.000779272526
 93      -0.000666224519
 94      -0.003591327961
 95      -0.004687826615
 96      -0.000767705795
 97       0.003778522527
 98       0.003634978058
 99       0.000044208076
100      -0.000085523765
101       0.000078408021
102      -0.001139183862
103       0.003027498277
104      -0.001194875324
105      -0.000145988804
106       0.001808155305
107      -0.001519634664
108       0.000011806085
109      -0.000019780768
110      -0.000003844403
111      -0.000054893520
112      -0.000040465674
113      -0.001086146314
114       0.000358607215
115      -0.000404368205
116      -0.000480878989
117      -0.000581162696
118       0.000063579258
119       0.000029704052
120      -0.000022420866
121       0.000060855247
122       0.000042427117
123      -0.000101719248
124       0.000025964972
125       0.000456605698
126       0.001845883610
127       0.003774782542
128       0.000541261399
129      -0.001778644915
130      -0.000368092269
131       0.000434873555
132       0.002606314190
133       0.004925790391
134      -0.001612376711
135       0.000036859918
136       0.001141608526
137       0.000432729978
138       0.002731640347
139       0.005336014206
140       0.001367772408
141       0.000884519010
142       0.001139409453
143       0.000075799493
144       0.000872028104
145       0.001069997206
146      -0.000043191395
147       0.000148387475
148      -0.000126667454
149      -0.000026525572
150      -0.000363124006
151      -0.000724772253
152       0.000013063328
153      -0.000057204483
154      -0.000052878405
155      -0.000024925946
156      -0.000231544264
157      -0.000102348667
158       0.000082097838
159      -0.000007356631
160      -0.000060488031
 Sym=     1a
 Ene= -1.08946024855858E+00
 Spin= Alpha
 Occup= 2.000000
  1      -0.088904689969
  2      -0.209488833371
  3       0.300937419197
  4       0.394956096833
  5       0.124365193021
  6       0.030261860797
  7      -0.048408694605
  8      -0.101775228055
  9       0.023631509173
 10      -0.037446889360
 11      -0.078035456350
 12       0.003774872908
 13      -0.002839440728
 14      -0.005907405419
 15       0.004315482938
 16      -0.002589675701
 17       0.004515746868
 18      -0.000196841480
 19      -0.000921965650
 20       0.009139487969
 21      -0.006169125681
 22       0.010666070898
 23      -0.000096126425
 24      -0.000586174705
 25      -0.001022879678
 26       0.001240484252
 27      -0.002327105544
 28       0.000352784735
 29       0.000996303108
 30       0.000032881813
 31       0.000061497918
 32      -0.057070139414
 33      -0.120215692386
 34       0.186507263938
 35       0.145719379621
 36       0.021956689042
 37      -0.033268782280
 38       0.055682097406
 39       0.118873916008
 40      -0.008866919063
 41       0.014936746866
 42       0.033640772893
 43       0.001829199985
 44      -0.002810990303
 45       0.003070657583
 46       0.013141441971
 47      -0.007354430928
 48       0.011903451559
 49      -0.002586098719
 50      -0.004190965535
 51       0.004703811108
 52      -0.001333618949
 53       0.000956159789
 54      -0.004719936312
 55      -0.005159594970
 56       0.001878337134
 57      -0.003680917644
 58       0.007546174172
 59      -0.000290208180
 60      -0.001664187106
 61       0.000809680769
 62      -0.000537113214
 63      -0.008214361684
 64      -0.017005399771
 65       0.025521957733
 66       0.015230248897
 67      -0.005086025035
 68       0.000253155414
 69      -0.003994014714
 70       0.015849001976
 71      -0.000635496621
 72       0.001275957890
 73       0.004798476491
 74      -0.000082288608
 75      -0.000284892450
 76      -0.000436371987
 77       0.001320583890
 78      -0.000090875068
 79      -0.000191026172
 80       0.000024429527
 81       0.000079420384
 82       0.001104015224
 83      -0.000644635742
 84       0.001109690361
 85       0.000373396884
 86       0.000080107654
 87       0.000902513614
 88      -0.000304159410
 89       0.000305401354
 90      -0.000091730502
 91      -0.000037425848
 92       0.000039652870
 93       0.000042458435
 94      -0.008308221573
 95      -0.017208973541
 96       0.026070063798
 97       0.014353892219
 98      -0.013588415161
 99      -0.006377169460
100       0.014220397746
101       0.005666265674
102      -0.000858654843
103       0.002020565459
104       0.003702868714
105      -0.000004064195
106      -0.003166766180
107      -0.001152980702
108      -0.000204550621
109      -0.000469762762
110       0.000977467247
111      -0.000555377886
112      -0.000624780241
113       0.000804970222
114      -0.000707960910
115       0.000951530264
116       0.000597730628
117       0.000098718560
118      -0.000211776072
119      -0.000370052230
120       0.000519653101
121      -0.000376600618
122      -0.000520401031
123      -0.000325180245
124       0.000054061391
125       0.004912587557
126       0.004639581722
127       0.002182118271
128       0.000277994606
129      -0.001069489567
130       0.000372414174
131       0.002636038319
132       0.002772862202
133       0.001031975490
134      -0.000294665182
135      -0.000117445338
136       0.000698083176
137       0.002974097862
138       0.003564137422
139       0.000997351417
140       0.000367170149
141       0.000001392413
142       0.000922354820
143       0.005023063404
144       0.004627061306
145       0.002412301871
146      -0.000177657660
147       0.000943987105
148      -0.000689690808
149       0.002929896909
150       0.003379004185
151       0.002274423184
152      -0.000637727238
153       0.000606027027
154       0.000317446010
155       0.002708660457
156       0.003440064787
157       0.000498122750
158       0.000041139843
159       0.000703403379
160       0.000489690655
 Sym=     1a
 Ene= -7.92382068691530E-01
 Spin= Alpha
 Occup= 2.000000
  1       0.030414295398
  2       0.072401998786
  3      -0.109882770724
  4      -0.140233085298
  5      -0.071965058409
  6       0.001171616839
  7      -0.003058438686
  8      -0.006189493287
  9       0.001393197579
 10      -0.003199607738
 11      -0.007038680580
 12      -0.000181663532
 13      -0.003324338954
 14      -0.007506801036
 15      -0.000247809280
 16       0.000170275457
 17      -0.000434609643
 18      -0.000245163857
 19      -0.000144306763
 20       0.000384030480
 21       0.000106069419
 22      -0.000369450494
 23      -0.000492057896
 24      -0.000939396926
 25      -0.000032343281
 26      -0.000014853330
 27       0.000166272947
 28       0.000130277417
 29       0.000031293306
 30       0.000137269049
 31      -0.000044862691
 32      -0.045066175436
 33      -0.096365969373
 34       0.153521651356
 35       0.150027031281
 36       0.034110227209
 37       0.033055738706
 38      -0.055248099041
 39      -0.114708759676
 40       0.019876411633
 41      -0.032200649030
 42      -0.069013894595
 43       0.006935744547
 44      -0.005199876209
 45      -0.012740120927
 46      -0.002790580880
 47       0.002820047494
 48      -0.006712649722
 49      -0.003790316737
 50      -0.003079551047
 51      -0.002390819018
 52       0.003017575911
 53      -0.007007235212
 54      -0.003386240777
 55      -0.002526822937
 56      -0.001116304950
 57      -0.000144348915
 58       0.001356322815
 59       0.001153538224
 60       0.001188410983
 61       0.001402848472
 62      -0.000394505870
 63      -0.058097564644
 64      -0.123617094496
 65       0.184568691099
 66       0.217599954227
 67       0.013603196008
 68       0.009333188488
 69      -0.030353582700
 70       0.023546282935
 71       0.008679614331
 72      -0.027120232375
 73       0.021056332571
 74       0.000632558152
 75      -0.004032555330
 76      -0.000845725529
 77       0.000993641218
 78       0.000985662328
 79      -0.003039488237
 80      -0.001114803224
 81      -0.000861813724
 82       0.001387628888
 83       0.002653278454
 84      -0.007658286355
 85      -0.002350626003
 86      -0.001231784073
 87       0.000520563812
 88       0.000966803770
 89      -0.002831776559
 90      -0.002790118377
 91      -0.001816573342
 92      -0.001071937273
 93       0.000890570834
 94      -0.059329209687
 95      -0.126219262403
 96       0.187723127947
 97       0.225531452575
 98       0.014281864671
 99      -0.012517716618
100       0.035038723627
101      -0.012852961308
102      -0.011549161727
103       0.033219034845
104      -0.012343806595
105      -0.004235587280
106      -0.000987669592
107       0.000910595330
108      -0.001685719609
109       0.000404517862
110      -0.000938427934
111      -0.002147092451
112      -0.002095138801
113      -0.005731334935
114       0.001770812036
115      -0.003018199768
116      -0.005240698239
117      -0.004277702985
118       0.001812600549
119      -0.000077284517
120      -0.003243110270