
                                 *****************
                                 * O   R   C   A *
                                 *****************

           --- An Ab Initio, DFT and Semiempirical electronic structure package ---

                  #######################################################
                  #                        -***-                        #
                  #          Department of theory and spectroscopy      #
                  #               Directorship: Frank Neese             #
                  #        Max Planck Institute fuer Kohlenforschung    #
                  #                Kaiser Wilhelm Platz 1               #
                  #                 D-45470 Muelheim/Ruhr               #
                  #                      Germany                        #
                  #                                                     #
                  #                  All rights reserved                #
                  #                        -***-                        #
                  #######################################################


                         Program Version 4.2.1 -  RELEASE  -


 With contributions from (in alphabetic order):
   Daniel Aravena         : Magnetic Suceptibility
   Michael Atanasov       : Ab Initio Ligand Field Theory (pilot matlab implementation)
   Alexander A. Auer      : GIAO ZORA, VPT2
   Ute Becker             : Parallelization
   Giovanni Bistoni       : ED, misc. LED, open-shell LED, HFLD
   Martin Brehm           : Molecular dynamics
   Dmytro Bykov           : SCF Hessian
   Vijay G. Chilkuri      : MRCI spin determinant printing, contributions to CSF-ICE
   Dipayan Datta          : RHF DLPNO-CCSD density
   Achintya Kumar Dutta   : EOM-CC, STEOM-CC
   Dmitry Ganyushin       : Spin-Orbit,Spin-Spin,Magnetic field MRCI
   Miquel Garcia          : C-PCM Hessian, Gaussian charge scheme
   Yang Guo               : DLPNO-NEVPT2, CIM, IAO-localization
   Andreas Hansen         : Spin unrestricted coupled pair/coupled cluster methods
   Benjamin Helmich-Paris : CASSCF linear response (MC-RPA)
   Lee Huntington         : MR-EOM, pCC
   Robert Izsak           : Overlap fitted RIJCOSX, COSX-SCS-MP3, EOM
   Christian Kollmar      : KDIIS, OOCD, Brueckner-CCSD(T), CCSD density
   Simone Kossmann        : Meta GGA functionals, TD-DFT gradient, OOMP2, MP2 Hessian
   Martin Krupicka        : AUTO-CI
   Lucas Lang             : DCDCAS
   Dagmar Lenk            : GEPOL surface, SMD
   Dimitrios Liakos       : Extrapolation schemes; Compound Job, initial MDCI parallelization
   Dimitrios Manganas     : Further ROCIS development; embedding schemes
   Dimitrios Pantazis     : SARC Basis sets
   Taras Petrenko         : DFT Hessian,TD-DFT gradient, ASA, ECA, R-Raman, ABS, FL, XAS/XES, NRVS
   Peter Pinski           : DLPNO-MP2, DLPNO-MP2 Gradient
   Christoph Reimann      : Effective Core Potentials
   Marius Retegan         : Local ZFS, SOC
   Christoph Riplinger    : Optimizer, TS searches, QM/MM, DLPNO-CCSD(T), (RO)-DLPNO pert. Triples
   Tobias Risthaus        : Range-separated hybrids, TD-DFT gradient, RPA, STAB
   Michael Roemelt        : Original ROCIS implementation
   Masaaki Saitow         : Open-shell DLPNO-CCSD energy and density
   Barbara Sandhoefer     : DKH picture change effects
   Avijit Sen             : IP-ROCIS
   Kantharuban Sivalingam : CASSCF convergence, NEVPT2, FIC-MRCI
   Bernardo de Souza      : ESD, SOC TD-DFT
   Georgi Stoychev        : AutoAux, RI-MP2 NMR
   Willem Van den Heuvel  : Paramagnetic NMR
   Boris Wezisla          : Elementary symmetry handling
   Frank Wennmohs         : Technical directorship


 We gratefully acknowledge several colleagues who have allowed us to
 interface, adapt or use parts of their codes:
   Stefan Grimme, W. Hujo, H. Kruse,             : VdW corrections, initial TS optimization,
                  C. Bannwarth                     DFT functionals, gCP, sTDA/sTD-DF
   Ed Valeev, F. Pavosevic, A. Kumar             : LibInt (2-el integral package), F12 methods
   Garnet Chan, S. Sharma, J. Yang, R. Olivares  : DMRG
   Ulf Ekstrom                                   : XCFun DFT Library
   Mihaly Kallay                                 : mrcc  (arbitrary order and MRCC methods)
   Andreas Klamt, Michael Diedenhofen            : otool_cosmo (COSMO solvation model)
   Jiri Pittner, Ondrej Demel                    : Mk-CCSD
   Frank Weinhold                                : gennbo (NPA and NBO analysis)
   Christopher J. Cramer and Donald G. Truhlar   : smd solvation model
   Lars Goerigk                                  : TD-DFT with DH, B97 family of functionals
   V. Asgeirsson, H. Jonsson                     : NEB implementation
   FAccTs GmbH                                   : IRC, NEB, NEB-TS, Multilevel, MM, QM/MM, CI optimization
   S Lehtola, MJT Oliveira, MAL Marques          : LibXC Library


 Your calculation uses the libint2 library for the computation of 2-el integrals
 For citations please refer to: http://libint.valeyev.net

 Your ORCA version has been built with support for libXC version: 4.2.3
 For citations please refer to: https://tddft.org/programs/libxc/

 This ORCA versions uses:
   CBLAS   interface :  Fast vector & matrix operations
   LAPACKE interface :  Fast linear algebra routines
   SCALAPACK package :  Parallel linear algebra routines



Reading of a custom basis requested
Basis file         : system.bas
READING GTO-BASIS: OXYGEN
READING GTO-BASIS: CARBON
READING GTO-BASIS: HYDROGEN
Basis successfully read

Reading of a custom AuxJ basis requested
Basis file: system.aux
READING GTO-BASIS: OXYGEN
READING GTO-BASIS: CARBON
READING GTO-BASIS: HYDROGEN
Basis read successfully!

----- Orbital basis set information -----
----- AuxJ basis set information -----
================================================================================
                                        WARNINGS
                       Please study these warnings very carefully!
================================================================================


INFO   : the flag for use of LIBINT has been found!

================================================================================
                                       INPUT FILE
================================================================================
NAME = system.inp
|  1> * xyz  0 1
|  2>   O    0.347830    9.848640    2.499119
|  3>   C    0.647923    9.351901    1.442275
|  4>   C    0.453584   10.081936    0.138825
|  5>   C    1.235329    7.967311    1.354206
|  6>   H    0.145990   11.108673    0.326978
|  7>   H    1.370486   10.066104   -0.457040
|  8>   H   -0.316395    9.575773   -0.452215
|  9>   H    1.230783    7.496338    2.335143
| 10>   H    2.263066    8.026563    0.983614
| 11>   H    0.677320    7.355839    0.639703
| 12> * 
| 13> 
| 14> %pal
| 15> nprocs 6
| 16> end
| 17> 
| 18> %basis
| 19> GTOName ="system.bas";
| 20> GTOAuxName ="system.aux";
| 21> end
| 22>  
| 23> 
| 24> %pointcharges "background.crg"
| 25> ! DFT PBE0 TightSCF  
| 26> 
| 27>                          ****END OF INPUT****
================================================================================

                       ****************************
                       * Single Point Calculation *
                       ****************************

---------------------------------
CARTESIAN COORDINATES (ANGSTROEM)
---------------------------------
  O      0.347830    9.848640    2.499119
  C      0.647923    9.351901    1.442275
  C      0.453584   10.081936    0.138825
  C      1.235329    7.967311    1.354206
  H      0.145990   11.108673    0.326978
  H      1.370486   10.066104   -0.457040
  H     -0.316395    9.575773   -0.452215
  H      1.230783    7.496338    2.335143
  H      2.263066    8.026563    0.983614
  H      0.677320    7.355839    0.639703

----------------------------
CARTESIAN COORDINATES (A.U.)
----------------------------
  NO LB      ZA    FRAG     MASS         X           Y           Z
   0 O     8.0000    0    15.999    0.657303   18.611232    4.722650
   1 C     6.0000    0    12.011    1.224397   17.672532    2.725505
   2 C     6.0000    0    12.011    0.857150   19.052098    0.262341
   3 C     6.0000    0    12.011    2.334433   15.056036    2.559078
   4 H     1.0000    0     1.008    0.275881   20.992350    0.617899
   5 H     1.0000    0     1.008    2.589843   19.022180   -0.863680
   6 H     1.0000    0     1.008   -0.597900   18.095588   -0.854563
   7 H     1.0000    0     1.008    2.325843   14.166026    4.412781
   8 H     1.0000    0     1.008    4.276575   15.168006    1.858761
   9 H     1.0000    0     1.008    1.279949   13.900521    1.208863

--------------------------------
INTERNAL COORDINATES (ANGSTROEM)
--------------------------------
 O      0   0   0     0.000000000000     0.00000000     0.00000000
 C      1   0   0     1.205705056432     0.00000000     0.00000000
 C      2   1   0     1.506552571484   121.77749645     0.00000000
 C      2   1   3     1.506615885253   121.79622021   180.09345023
 H      3   2   1     1.088211600478   110.12498186     7.24836867
 H      3   2   1     1.093624719935   110.86910156   129.44070131
 H      3   2   1     1.094713170018   109.49936333   247.01700362
 H      4   2   1     1.088151474205   110.08657617     6.00350426
 H      4   2   1     1.094117256576   109.64921233   245.55772346
 H      4   2   1     1.093520273188   110.67883411   128.04344720

---------------------------
INTERNAL COORDINATES (A.U.)
---------------------------
 O      0   0   0     0.000000000000     0.00000000     0.00000000
 C      1   0   0     2.278452354941     0.00000000     0.00000000
 C      2   1   0     2.846971766460   121.77749645     0.00000000
 C      2   1   3     2.847091412144   121.79622021   180.09345023
 H      3   2   1     2.056421900659   110.12498186     7.24836867
 H      3   2   1     2.066651213964   110.86910156   129.44070131
 H      3   2   1     2.068708086530   109.49936333   247.01700362
 H      4   2   1     2.056308278470   110.08657617     6.00350426
 H      4   2   1     2.067581973326   109.64921233   245.55772346
 H      4   2   1     2.066453838217   110.67883411   128.04344720

---------------------
BASIS SET INFORMATION
---------------------
There are 3 groups of distinct atoms

 Group   1 Type O   : 11s6p2d1f contracted to 5s3p2d1f pattern {62111/411/11/1}
 Group   2 Type C   : 11s6p2d1f contracted to 5s3p2d1f pattern {62111/411/11/1}
 Group   3 Type H   : 5s1p contracted to 3s1p pattern {311/1}

Atom   0O    basis set group =>   1
Atom   1C    basis set group =>   2
Atom   2C    basis set group =>   2
Atom   3C    basis set group =>   2
Atom   4H    basis set group =>   3
Atom   5H    basis set group =>   3
Atom   6H    basis set group =>   3
Atom   7H    basis set group =>   3
Atom   8H    basis set group =>   3
Atom   9H    basis set group =>   3
---------------------------------
AUXILIARY/J BASIS SET INFORMATION
---------------------------------
There are 3 groups of distinct atoms

 Group   1 Type O   : 8s6p5d3f1g contracted to 8s6p4d3f1g pattern {11111111/111111/2111/111/1}
 Group   2 Type C   : 8s6p5d3f1g contracted to 8s6p4d3f1g pattern {11111111/111111/2111/111/1}
 Group   3 Type H   : 4s3p2d contracted to 4s2p1d pattern {1111/21/2}

Atom   0O    basis set group =>   1
Atom   1C    basis set group =>   2
Atom   2C    basis set group =>   2
Atom   3C    basis set group =>   2
Atom   4H    basis set group =>   3
Atom   5H    basis set group =>   3
Atom   6H    basis set group =>   3
Atom   7H    basis set group =>   3
Atom   8H    basis set group =>   3
Atom   9H    basis set group =>   3

Checking for AutoStart:
The File: system.gbw exists
Trying to determine its content:
     ... Fine, the file contains calculation information
     ... Fine, the calculation information was read
     ... Fine, the file contains a basis set
     ... Fine, the basis set was read
     ... Fine, the file contains a geometry
     ... Fine, the geometry was read
     ... Fine, the file contains a set of orbitals
     ... Fine, the orbitals can be read
     => possible old guess file was deleted
     => GBW file was renamed to GES file
     => GES file is set as startup file
     => Guess is set to MORead
     ... now leaving AutoStart



           ************************************************************
           *        Program running with 6 parallel MPI-processes     *
           *              working on a common directory               *
           ************************************************************
------------------------------------------------------------------------------
                           ORCA GTO INTEGRAL CALCULATION
------------------------------------------------------------------------------

                         BASIS SET STATISTICS AND STARTUP INFO

 # of primitive gaussian shells          ...  116
 # of primitive gaussian functions       ...  232
 # of contracted shells                  ...   68
 # of contracted basis functions         ...  160
 Highest angular momentum                ...    3
 Maximum contraction depth               ...    6
 Integral package used                   ... LIBINT
 Integral threshhold            Thresh   ...  2.500e-11
 Primitive cut-off              TCut     ...  2.500e-12


------------------------------ INTEGRAL EVALUATION ----------------------------


 * One electron integrals 
 Pre-screening matrix                    ... done
 Shell pair data                         ... done (   0.001 sec)

ENUC WAS=  0.000000000


           ************************************************************
           *        Program running with 6 parallel MPI-processes     *
           *              working on a common directory               *
           ************************************************************
------------------------------------------------------------------------------
                            ORCA POINT-CHARGE CORRECTION
------------------------------------------------------------------------------

BaseName                           ... system
Point charge file                  ... background.crg

Reading the GBW file               ... done
Reading the one-electron matrix    ... done
Reading the point charges          ... done
Number of point charges            ... 864
Reading the nuclear-repulsion      ... done
Charge-Nuclei interaction          ... done
The nuclear repulsion file was updated
Doing the point charge correction  ... done
Storing the one-electron matrix    ... done

ENUC IS = 120.038520941


           ************************************************************
           *        Program running with 6 parallel MPI-processes     *
           *              working on a common directory               *
           ************************************************************
-------------------------------------------------------------------------------
                                 ORCA SCF
-------------------------------------------------------------------------------

------------
SCF SETTINGS
------------
Hamiltonian:
 Density Functional     Method          .... DFT(GTOs)
 Exchange Functional    Exchange        .... PBE
   PBE kappa parameter   XKappa         ....  0.804000
   PBE mue parameter    XMuePBE         ....  0.219520
 Correlation Functional Correlation     .... PBE
   PBE beta parameter  CBetaPBE         ....  0.066725
 LDA part of GGA corr.  LDAOpt          .... PW91-LDA
 Gradients option       PostSCFGGA      .... off
 Hybrid DFT is turned on
   Fraction HF Exchange ScalHFX         ....  0.250000
   Scaling of DF-GGA-X  ScalDFX         ....  0.750000
   Scaling of DF-GGA-C  ScalDFC         ....  1.000000
   Scaling of DF-LDA-C  ScalLDAC        ....  1.000000
   Perturbative correction              ....  0.000000
   Density functional embedding theory  .... OFF
   NL short-range parameter             ....  6.900000


General Settings:
 Integral files         IntName         .... system
 Hartree-Fock type      HFTyp           .... RHF
 Total Charge           Charge          ....    0
 Multiplicity           Mult            ....    1
 Number of Electrons    NEL             ....   32
 Basis Dimension        Dim             ....  160
 Nuclear Repulsion      ENuc            ....    120.0385209411 Eh

Convergence Acceleration:
 DIIS                   CNVDIIS         .... on
   Start iteration      DIISMaxIt       ....    12
   Startup error        DIISStart       ....  0.200000
   # of expansion vecs  DIISMaxEq       ....     5
   Bias factor          DIISBfac        ....   1.050
   Max. coefficient     DIISMaxC        ....  10.000
 Newton-Raphson         CNVNR           .... off
 SOSCF                  CNVSOSCF        .... on
   Start iteration      SOSCFMaxIt      ....   150
   Startup grad/error   SOSCFStart      ....  0.003300
 Level Shifting         CNVShift        .... on
   Level shift para.    LevelShift      ....    0.2500
   Turn off err/grad.   ShiftErr        ....    0.0010
 Zerner damping         CNVZerner       .... off
 Static damping         CNVDamp         .... on
   Fraction old density DampFac         ....    0.7000
   Max. Damping (<1)    DampMax         ....    0.9800
   Min. Damping (>=0)   DampMin         ....    0.0000
   Turn off err/grad.   DampErr         ....    0.1000
 Fernandez-Rico         CNVRico         .... off

SCF Procedure:
 Maximum # iterations   MaxIter         ....   125
 SCF integral mode      SCFMode         .... Direct
   Integral package                     .... LIBINT
 Reset frequency        DirectResetFreq ....    20
 Integral Threshold     Thresh          ....  2.500e-11 Eh
 Primitive CutOff       TCut            ....  2.500e-12 Eh

Convergence Tolerance:
 Convergence Check Mode ConvCheckMode   .... Total+1el-Energy
 Convergence forced     ConvForced      .... 0
 Energy Change          TolE            ....  1.000e-08 Eh
 1-El. energy change                    ....  1.000e-05 Eh
 Orbital Gradient       TolG            ....  1.000e-05
 Orbital Rotation angle TolX            ....  1.000e-05
 DIIS Error             TolErr          ....  5.000e-07


Diagonalization of the overlap matrix:
Smallest eigenvalue                        ... 3.783e-04
Time for diagonalization                   ...    0.004 sec
Threshold for overlap eigenvalues          ... 1.000e-08
Number of eigenvalues below threshold      ... 0
Time for construction of square roots      ...    0.003 sec
Total time needed                          ...    0.007 sec

---------------------
INITIAL GUESS: MOREAD
---------------------
Guess MOs are being read from file: system.ges
Input Geometry matches current geometry (good)
Input basis set matches current basis set (good)
MOs were renormalized
MOs were reorthogonalized (Cholesky)
                      ------------------
                      INITIAL GUESS DONE (   0.0 sec)
                      ------------------
-------------------
DFT GRID GENERATION
-------------------

General Integration Accuracy     IntAcc      ...  4.340
Radial Grid Type                 RadialGrid  ... Gauss-Chebyshev
Angular Grid (max. acc.)         AngularGrid ... Lebedev-110
Angular grid pruning method      GridPruning ... 3 (G Style)
Weight generation scheme         WeightScheme... Becke
Basis function cutoff            BFCut       ...    1.0000e-11
Integration weight cutoff        WCut        ...    1.0000e-14
Grids for H and He will be reduced by one unit

# of grid points (after initial pruning)     ...  11448 (   0.0 sec)
# of grid points (after weights+screening)   ...  10896 (   0.0 sec)
nearest neighbour list constructed           ...    0.0 sec
Grid point re-assignment to atoms done       ...    0.0 sec
Grid point division into batches done        ...    0.0 sec
Reduced shell lists constructed in    0.0 sec

Total number of grid points                  ...    10896
Total number of batches                      ...      175
Average number of points per batch           ...       62
Average number of grid points per atom       ...     1090
Average number of shells per batch           ...    53.06 (78.04%)
Average number of basis functions per batch  ...   131.90 (82.44%)
Average number of large shells per batch     ...    43.58 (82.13%)
Average number of large basis fcns per batch ...   110.16 (83.52%)
Maximum spatial batch extension              ...  23.07, 15.92, 14.44 au
Average spatial batch extension              ...   0.88,  0.74,  0.67 au

Time for grid setup =    0.043 sec

--------------
SCF ITERATIONS
--------------
ITER       Energy         Delta-E        Max-DP      RMS-DP      [F,P]     Damp
               ***  Starting incremental Fock matrix formation  ***
                      *** Initiating the SOSCF procedure ***
                      *** Re-Reading the Fockian *** 
                      *** Removing any level shift *** 
ITER      Energy       Delta-E        Grad      Rot      Max-DP    RMS-DP
  0   -193.02798298 -193.0279829804  0.000009  0.000009  0.000029  0.000001
               *** Restarting incremental Fock matrix formation ***
  1   -193.02798298  -0.0000000007  0.000003  0.000006  0.000007  0.000000
  2   -193.02798298   0.0000000000  0.000007  0.000007  0.000008  0.000000
                  ***Gradient check signals convergence***
              ***Rediagonalizing the Fockian in SOSCF/NRSCF***

               *****************************************************
               *                     SUCCESS                       *
               *           SCF CONVERGED AFTER   3 CYCLES          *
               *****************************************************

Setting up the final grid:

General Integration Accuracy     IntAcc      ...  4.670
Radial Grid Type                 RadialGrid  ... Gauss-Chebyshev
Angular Grid (max. acc.)         AngularGrid ... Lebedev-302
Angular grid pruning method      GridPruning ... 3 (G Style)
Weight generation scheme         WeightScheme... Becke
Basis function cutoff            BFCut       ...    1.0000e-11
Integration weight cutoff        WCut        ...    1.0000e-14
Grids for H and He will be reduced by one unit

# of grid points (after initial pruning)     ...  45212 (   0.0 sec)
# of grid points (after weights+screening)   ...  42619 (   0.0 sec)
nearest neighbour list constructed           ...    0.0 sec
Grid point re-assignment to atoms done       ...    0.0 sec
Grid point division into batches done        ...    0.2 sec
Reduced shell lists constructed in    0.3 sec

Total number of grid points                  ...    42619
Total number of batches                      ...      671
Average number of points per batch           ...       63
Average number of grid points per atom       ...     4262
Average number of shells per batch           ...    48.68 (71.59%)
Average number of basis functions per batch  ...   121.94 (76.21%)
Average number of large shells per batch     ...    40.03 (82.22%)
Average number of large basis fcns per batch ...   100.04 (82.05%)
Maximum spatial batch extension              ...  16.69, 14.35, 13.58 au
Average spatial batch extension              ...   0.52,  0.47,  0.45 au

Final grid set up in    0.3 sec
Final integration                            ... done (   0.2 sec)
Change in XC energy                          ...     0.000416010
Integrated number of electrons               ...    32.000015920
Previous integrated no of electrons          ...    32.002023714

----------------
TOTAL SCF ENERGY
----------------

Total Energy       :         -193.02756697 Eh           -5252.54713 eV

Components:
Nuclear Repulsion  :          120.03852094 Eh            3266.41422 eV
Electronic Energy  :         -313.06608791 Eh           -8518.96135 eV
One Electron Energy:         -498.72027236 Eh          -13570.86854 eV
Two Electron Energy:          185.65418444 Eh            5051.90719 eV

Virial components:
Potential Energy   :         -385.15293467 Eh          -10480.54417 eV
Kinetic Energy     :          192.12536770 Eh            5227.99704 eV
Virial Ratio       :            2.00469589


DFT components:
N(Alpha)           :       16.000007959997 electrons
N(Beta)            :       16.000007959997 electrons
N(Total)           :       32.000015919994 electrons
E(X)               :      -19.372106955960 Eh       
E(C)               :       -1.042892274080 Eh       
E(XC)              :      -20.414999230039 Eh       
DFET-embed. en.    :        0.000000000000 Eh       

---------------
SCF CONVERGENCE
---------------

  Last Energy change         ...   -3.6067e-10  Tolerance :   1.0000e-08
  Last MAX-Density change    ...    8.6078e-07  Tolerance :   1.0000e-07
  Last RMS-Density change    ...    2.6081e-08  Tolerance :   5.0000e-09
  Last Orbital Gradient      ...    2.6715e-07  Tolerance :   1.0000e-05
  Last Orbital Rotation      ...    4.9434e-07  Tolerance :   1.0000e-05

             **** THE GBW FILE WAS UPDATED (system.gbw) ****
             **** DENSITY FILE WAS UPDATED (system.scfp) ****
             **** ENERGY FILE WAS UPDATED (system.en.tmp) ****
             **** THE GBW FILE WAS UPDATED (system.gbw) ****
             **** DENSITY FILE WAS UPDATED (system.scfp) ****
----------------
ORBITAL ENERGIES
----------------

  NO   OCC          E(Eh)            E(eV) 
   0   2.0000     -19.205574      -522.6102 
   1   2.0000     -10.322084      -280.8782 
   2   2.0000     -10.217427      -278.0303 
   3   2.0000     -10.216782      -278.0128 
   4   2.0000      -1.089460       -29.6457 
   5   2.0000      -0.792382       -21.5618 
   6   2.0000      -0.728245       -19.8165 
   7   2.0000      -0.554409       -15.0862 
   8   2.0000      -0.480397       -13.0723 
   9   2.0000      -0.477683       -12.9984 
  10   2.0000      -0.475772       -12.9464 
  11   2.0000      -0.411435       -11.1957 
  12   2.0000      -0.406904       -11.0724 
  13   2.0000      -0.386284       -10.5113 
  14   2.0000      -0.376529       -10.2459 
  15   2.0000      -0.276551        -7.5253 
  16   0.0000      -0.017795        -0.4842 
  17   0.0000       0.055620         1.5135 
  18   0.0000       0.107267         2.9189 
  19   0.0000       0.117334         3.1928 
  20   0.0000       0.135801         3.6953 
  21   0.0000       0.144387         3.9290 
  22   0.0000       0.149197         4.0599 
  23   0.0000       0.162740         4.4284 
  24   0.0000       0.165505         4.5036 
  25   0.0000       0.198945         5.4136 
  26   0.0000       0.218408         5.9432 
  27   0.0000       0.230626         6.2756 
  28   0.0000       0.237530         6.4635 
  29   0.0000       0.311134         8.4664 
  30   0.0000       0.313227         8.5233 
  31   0.0000       0.321642         8.7523 
  32   0.0000       0.373993        10.1769 
  33   0.0000       0.381224        10.3736 
  34   0.0000       0.413000        11.2383 
  35   0.0000       0.420569        11.4443 
  36   0.0000       0.431512        11.7420 
  37   0.0000       0.448929        12.2160 
  38   0.0000       0.456722        12.4280 
  39   0.0000       0.483398        13.1539 
  40   0.0000       0.487837        13.2747 
  41   0.0000       0.507118        13.7994 
  42   0.0000       0.536608        14.6018 
  43   0.0000       0.579429        15.7671 
  44   0.0000       0.593070        16.1383 
  45   0.0000       0.622121        16.9288 
  46   0.0000       0.670788        18.2531 
  47   0.0000       0.675498        18.3812 
  48   0.0000       0.721889        19.6436 
  49   0.0000       0.794143        21.6097 
  50   0.0000       0.835472        22.7343 
  51   0.0000       0.839486        22.8436 
  52   0.0000       0.913799        24.8657 
  53   0.0000       0.950212        25.8566 
  54   0.0000       0.985950        26.8291 
  55   0.0000       0.991782        26.9878 
  56   0.0000       1.008331        27.4381 
  57   0.0000       1.064723        28.9726 
  58   0.0000       1.114834        30.3362 
  59   0.0000       1.117376        30.4053 
  60   0.0000       1.139858        31.0171 
  61   0.0000       1.234287        33.5867 
  62   0.0000       1.388143        37.7733 
  63   0.0000       1.414951        38.5028 
  64   0.0000       1.448120        39.4054 
  65   0.0000       1.512141        41.1474 
  66   0.0000       1.517357        41.2894 
  67   0.0000       1.530157        41.6377 
  68   0.0000       1.532193        41.6931 
  69   0.0000       1.542915        41.9848 
  70   0.0000       1.573150        42.8076 
  71   0.0000       1.581256        43.0282 
  72   0.0000       1.594911        43.3997 
  73   0.0000       1.637150        44.5491 
  74   0.0000       1.659646        45.1613 
  75   0.0000       1.712689        46.6046 
  76   0.0000       1.854214        50.4557 
  77   0.0000       1.876345        51.0579 
  78   0.0000       1.882904        51.2364 
  79   0.0000       1.961020        53.3621 
  80   0.0000       2.005301        54.5670 
  81   0.0000       2.033564        55.3361 
  82   0.0000       2.050333        55.7924 
  83   0.0000       2.096627        57.0521 
  84   0.0000       2.122989        57.7695 
  85   0.0000       2.166183        58.9448 
  86   0.0000       2.177032        59.2401 
  87   0.0000       2.208243        60.0893 
  88   0.0000       2.219574        60.3977 
  89   0.0000       2.338122        63.6235 
  90   0.0000       2.359707        64.2109 
  91   0.0000       2.360600        64.2352 
  92   0.0000       2.406904        65.4952 
  93   0.0000       2.460624        66.9570 
  94   0.0000       2.476613        67.3921 
  95   0.0000       2.529473        68.8304 
  96   0.0000       2.541397        69.1549 
  97   0.0000       2.570569        69.9487 
  98   0.0000       2.572113        69.9908 
  99   0.0000       2.664747        72.5114 
 100   0.0000       2.706476        73.6469 
 101   0.0000       2.760653        75.1212 
 102   0.0000       2.797901        76.1348 
 103   0.0000       2.816080        76.6294 
 104   0.0000       2.856990        77.7426 
 105   0.0000       2.911284        79.2201 
 106   0.0000       2.977560        81.0235 
 107   0.0000       2.985895        81.2503 
 108   0.0000       3.003047        81.7171 
 109   0.0000       3.076723        83.7219 
 110   0.0000       3.080362        83.8209 
 111   0.0000       3.102953        84.4357 
 112   0.0000       3.118467        84.8578 
 113   0.0000       3.133308        85.2617 
 114   0.0000       3.149515        85.7026 
 115   0.0000       3.235780        88.0500 
 116   0.0000       3.296616        89.7055 
 117   0.0000       3.308949        90.0411 
 118   0.0000       3.321288        90.3768 
 119   0.0000       3.379321        91.9560 
 120   0.0000       3.389817        92.2416 
 121   0.0000       3.428214        93.2865 
 122   0.0000       3.456868        94.0662 
 123   0.0000       3.496666        95.1491 
 124   0.0000       3.531804        96.1053 
 125   0.0000       3.550872        96.6241 
 126   0.0000       3.681380       100.1754 
 127   0.0000       3.770472       102.5998 
 128   0.0000       3.867712       105.2458 
 129   0.0000       3.871569       105.3508 
 130   0.0000       3.907683       106.3334 
 131   0.0000       3.984983       108.4369 
 132   0.0000       3.992584       108.6437 
 133   0.0000       4.015098       109.2564 
 134   0.0000       4.070820       110.7727 
 135   0.0000       4.334947       117.9599 
 136   0.0000       4.374265       119.0298 
 137   0.0000       4.394314       119.5754 
 138   0.0000       4.409464       119.9876 
 139   0.0000       4.452340       121.1543 
 140   0.0000       4.534355       123.3861 
 141   0.0000       4.669620       127.0668 
 142   0.0000       4.778110       130.0190 
 143   0.0000       4.791875       130.3935 
 144   0.0000       5.191291       141.2622 
 145   0.0000       5.195479       141.3762 
 146   0.0000       5.604707       152.5118 
 147   0.0000       5.688833       154.8010 
 148   0.0000       6.155322       167.4948 
 149   0.0000       6.349587       172.7810 
 150   0.0000       6.391258       173.9150 
 151   0.0000       6.514800       177.2767 
 152   0.0000       6.543383       178.0545 
 153   0.0000       6.809664       185.3004 
 154   0.0000       6.994256       190.3234 
 155   0.0000       7.076074       192.5498 
 156   0.0000      22.399501       609.5214 
 157   0.0000      22.414102       609.9187 
 158   0.0000      23.051632       627.2668 
 159   0.0000      43.913425      1194.9451 

                    ********************************
                    * MULLIKEN POPULATION ANALYSIS *
                    ********************************

-----------------------
MULLIKEN ATOMIC CHARGES
-----------------------
   0 O :   -0.413205
   1 C :    0.193989
   2 C :   -0.353364
   3 C :   -0.355960
   4 H :    0.140563
   5 H :    0.178787
   6 H :    0.136250
   7 H :    0.148319
   8 H :    0.154242
   9 H :    0.170379
Sum of atomic charges:   -0.0000000

--------------------------------
MULLIKEN REDUCED ORBITAL CHARGES
--------------------------------
  0 O s       :     3.791116  s :     3.791116
      pz      :     1.472026  p :     4.590116
      px      :     1.406151
      py      :     1.711939
      dz2     :     0.008993  d :     0.030106
      dxz     :     0.008262
      dyz     :     0.007930
      dx2y2   :     0.002692
      dxy     :     0.002229
      f0      :     0.000470  f :     0.001868
      f+1     :     0.000335
      f-1     :     0.000460
      f+2     :     0.000314
      f-2     :     0.000270
      f+3     :     0.000013
      f-3     :     0.000006
  1 C s       :     3.186621  s :     3.186621
      pz      :     0.848236  p :     2.404932
      px      :     0.693105
      py      :     0.863592
      dz2     :     0.050480  d :     0.196511
      dxz     :     0.044131
      dyz     :     0.056809
      dx2y2   :     0.023344
      dxy     :     0.021747
      f0      :     0.005573  f :     0.017947
      f+1     :     0.002505
      f-1     :     0.002787
      f+2     :     0.002786
      f-2     :     0.002554
      f+3     :     0.000688
      f-3     :     0.001055
  2 C s       :     3.207951  s :     3.207951
      pz      :     0.978205  p :     3.099812
      px      :     1.075226
      py      :     1.046381
      dz2     :     0.008955  d :     0.042478
      dxz     :     0.011730
      dyz     :     0.009608
      dx2y2   :     0.007666
      dxy     :     0.004520
      f0      :     0.000865  f :     0.003123
      f+1     :     0.000330
      f-1     :     0.000600
      f+2     :     0.000605
      f-2     :     0.000342
      f+3     :     0.000209
      f-3     :     0.000170
  3 C s       :     3.212916  s :     3.212916
      pz      :     1.059296  p :     3.098467
      px      :     1.074789
      py      :     0.964383
      dz2     :     0.006924  d :     0.041495
      dxz     :     0.006118
      dyz     :     0.013478
      dx2y2   :     0.008467
      dxy     :     0.006507
      f0      :     0.000483  f :     0.003082
      f+1     :     0.000086
      f-1     :     0.000745
      f+2     :     0.000363
      f-2     :     0.000442
      f+3     :     0.000605
      f-3     :     0.000358
  4 H s       :     0.837954  s :     0.837954
      pz      :     0.004217  p :     0.021483
      px      :     0.005101
      py      :     0.012165
  5 H s       :     0.799618  s :     0.799618
      pz      :     0.007429  p :     0.021595
      px      :     0.009930
      py      :     0.004235
  6 H s       :     0.842063  s :     0.842063
      pz      :     0.007330  p :     0.021687
      px      :     0.008555
      py      :     0.005803
  7 H s       :     0.830481  s :     0.830481
      pz      :     0.010868  p :     0.021200
      px      :     0.004280
      py      :     0.006052
  8 H s       :     0.823929  s :     0.823929
      pz      :     0.005385  p :     0.021830
      px      :     0.012013
      py      :     0.004431
  9 H s       :     0.808176  s :     0.808176
      pz      :     0.008586  p :     0.021445
      px      :     0.005786
      py      :     0.007073


                     *******************************
                     * LOEWDIN POPULATION ANALYSIS *
                     *******************************

----------------------
LOEWDIN ATOMIC CHARGES
----------------------
   0 O :    0.058252
   1 C :   -0.386976
   2 C :   -0.263691
   3 C :   -0.267999
   4 H :    0.133826
   5 H :    0.150315
   6 H :    0.144519
   7 H :    0.132798
   8 H :    0.149116
   9 H :    0.149841

-------------------------------
LOEWDIN REDUCED ORBITAL CHARGES
-------------------------------
  0 O s       :     3.394510  s :     3.394510
      pz      :     1.547321  p :     4.472207
      px      :     1.328821
      py      :     1.596065
      dz2     :     0.026887  d :     0.068862
      dxz     :     0.011748
      dyz     :     0.021259
      dx2y2   :     0.004148
      dxy     :     0.004819
      f0      :     0.002042  f :     0.006170
      f+1     :     0.000873
      f-1     :     0.001635
      f+2     :     0.000658
      f-2     :     0.000807
      f+3     :     0.000115
      f-3     :     0.000040
  1 C s       :     2.779554  s :     2.779554
      pz      :     1.015249  p :     2.695811
      px      :     0.702875
      py      :     0.977687
      dz2     :     0.247414  d :     0.797195
      dxz     :     0.141285
      dyz     :     0.233032
      dx2y2   :     0.087145
      dxy     :     0.088319
      f0      :     0.037814  f :     0.114417
      f+1     :     0.014085
      f-1     :     0.016954
      f+2     :     0.018447
      f-2     :     0.018286
      f+3     :     0.003914
      f-3     :     0.004916
  2 C s       :     2.836123  s :     2.836123
      pz      :     1.051420  p :     3.187026
      px      :     1.072850
      py      :     1.062755
      dz2     :     0.048401  d :     0.217778
      dxz     :     0.056658
      dyz     :     0.048073
      dx2y2   :     0.040530
      dxy     :     0.024116
      f0      :     0.006364  f :     0.022765
      f+1     :     0.002101
      f-1     :     0.005013
      f+2     :     0.002837
      f-2     :     0.003062
      f+3     :     0.001794
      f-3     :     0.001593
  3 C s       :     2.836631  s :     2.836631
      pz      :     1.074487  p :     3.191495
      px      :     1.071479
      py      :     1.045530
      dz2     :     0.032846  d :     0.217086
      dxz     :     0.024143
      dyz     :     0.066728
      dx2y2   :     0.053215
      dxy     :     0.040154
      f0      :     0.003166  f :     0.022787
      f+1     :     0.001513
      f-1     :     0.003948
      f+2     :     0.002577
      f-2     :     0.003851
      f+3     :     0.004520
      f-3     :     0.003211
  4 H s       :     0.803169  s :     0.803169
      pz      :     0.012944  p :     0.063005
      px      :     0.015235
      py      :     0.034827
  5 H s       :     0.786004  s :     0.786004
      pz      :     0.020203  p :     0.063681
      px      :     0.030485
      py      :     0.012992
  6 H s       :     0.792755  s :     0.792755
      pz      :     0.019707  p :     0.062726
      px      :     0.024804
      py      :     0.018216
  7 H s       :     0.804006  s :     0.804006
      pz      :     0.033376  p :     0.063196
      px      :     0.013153
      py      :     0.016667
  8 H s       :     0.787647  s :     0.787647
      pz      :     0.016304  p :     0.063237
      px      :     0.033799
      py      :     0.013134
  9 H s       :     0.786404  s :     0.786404
      pz      :     0.024578  p :     0.063755
      px      :     0.019417
      py      :     0.019760


                      *****************************
                      * MAYER POPULATION ANALYSIS *
                      *****************************

  NA   - Mulliken gross atomic population
  ZA   - Total nuclear charge
  QA   - Mulliken gross atomic charge
  VA   - Mayer's total valence
  BVA  - Mayer's bonded valence
  FA   - Mayer's free valence

  ATOM       NA         ZA         QA         VA         BVA        FA
  0 O      8.4132     8.0000    -0.4132     2.0336     2.0336     0.0000
  1 C      5.8060     6.0000     0.1940     4.1275     4.1275    -0.0000
  2 C      6.3534     6.0000    -0.3534     3.7674     3.7674    -0.0000
  3 C      6.3560     6.0000    -0.3560     3.7701     3.7701    -0.0000
  4 H      0.8594     1.0000     0.1406     0.9882     0.9882     0.0000
  5 H      0.8212     1.0000     0.1788     0.9647     0.9647     0.0000
  6 H      0.8638     1.0000     0.1362     0.9737     0.9737    -0.0000
  7 H      0.8517     1.0000     0.1483     0.9794     0.9794     0.0000
  8 H      0.8458     1.0000     0.1542     0.9804     0.9804     0.0000
  9 H      0.8296     1.0000     0.1704     0.9614     0.9614    -0.0000

  Mayer bond orders larger than 0.100000
B(  0-O ,  1-C ) :   2.0047 B(  1-C ,  2-C ) :   1.0047 B(  1-C ,  3-C ) :   1.0278 
B(  2-C ,  4-H ) :   0.9581 B(  2-C ,  5-H ) :   0.9340 B(  2-C ,  6-H ) :   0.9340 
B(  3-C ,  7-H ) :   0.9464 B(  3-C ,  8-H ) :   0.9351 B(  3-C ,  9-H ) :   0.9288 


-------
TIMINGS
-------

Total SCF time: 0 days 0 hours 0 min 5 sec 

Total time                  ....       5.443 sec
Sum of individual times     ....       5.194 sec  ( 95.4%)

Fock matrix formation       ....       4.784 sec  ( 87.9%)
  XC integration            ....       0.306 sec  (  6.4% of F)
    Basis function eval.    ....       0.058 sec  ( 18.9% of XC)
    Density eval.           ....       0.054 sec  ( 17.7% of XC)
    XC-Functional eval.     ....       0.012 sec  (  3.9% of XC)
    XC-Potential eval.      ....       0.105 sec  ( 34.3% of XC)
Diagonalization             ....       0.004 sec  (  0.1%)
Density matrix formation    ....       0.003 sec  (  0.1%)
Population analysis         ....       0.005 sec  (  0.1%)
Initial guess               ....       0.010 sec  (  0.2%)
Orbital Transformation      ....       0.000 sec  (  0.0%)
Orbital Orthonormalization  ....       0.004 sec  (  0.1%)
DIIS solution               ....       0.001 sec  (  0.0%)
SOSCF solution              ....       0.010 sec  (  0.2%)
Grid generation             ....       0.377 sec  (  6.9%)

-------------------------   --------------------
FINAL SINGLE POINT ENERGY      -193.027566971670
-------------------------   --------------------


                            ***************************************
                            *     ORCA property calculations      *
                            ***************************************

                                    ---------------------
                                    Active property flags
                                    ---------------------
   (+) Dipole Moment


------------------------------------------------------------------------------
                       ORCA ELECTRIC PROPERTIES CALCULATION
------------------------------------------------------------------------------

Dipole Moment Calculation                       ... on
Quadrupole Moment Calculation                   ... off
Polarizability Calculation                      ... off
GBWName                                         ... system.gbw
Electron density file                           ... system.scfp
The origin for moment calculation is the CENTER OF MASS  = ( 1.270453, 17.593907  2.558762)

-------------
DIPOLE MOMENT
-------------
                                X             Y             Z
Electronic contribution:     -0.85908       1.40165       2.90552
Nuclear contribution   :      1.24999      -2.08650      -4.43757
                        -----------------------------------------
Total Dipole Moment    :      0.39092      -0.68485      -1.53205
                        -----------------------------------------
Magnitude (a.u.)       :      1.72308
Magnitude (Debye)      :      4.37972



--------------------
Rotational spectrum 
--------------------
 
Rotational constants in cm-1:     0.341602     0.286936     0.165457 
Rotational constants in MHz : 10240.985309  8602.118847  4960.287623 

 Dipole components along the rotational axes: 
x,y,z [a.u.] :     0.041659    -1.722383     0.025832 
x,y,z [Debye]:     0.105890    -4.377949     0.065660 

 

Timings for individual modules:

Sum of individual times         ...        8.978 sec (=   0.150 min)
GTO integral calculation        ...        3.367 sec (=   0.056 min)  37.5 %
SCF iterations                  ...        5.611 sec (=   0.094 min)  62.5 %
                             ****ORCA TERMINATED NORMALLY****
TOTAL RUN TIME: 0 days 0 hours 0 minutes 9 seconds 637 msec
