[Molden Format]
[Title]
 Molden file created by orca_2mkl for BaseName=system

[Atoms] AU
O    1   8          0.6573034412        18.6112323916         4.7226504861 
C    2   6          1.2243970259        17.6725317215         2.7255047598 
C    3   6          0.8571495387        19.0520979397         0.2623412305 
C    4   6          2.3344334953        15.0560358138         2.5590784689 
H    5   1          0.2758811183        20.9923496813         0.6178988718 
H    6   1          2.5898432104        19.0221797956        -0.8636804322 
H    7   1         -0.5978999001        18.0955884906        -0.8545625037 
H    8   1          2.3258428003        14.1660258273         4.4127807535 
H    9   1          4.2765749630        15.1680058667         1.8587610815 
H   10   1          1.2799493050        13.9005211952         1.2088634770 
[GTO]
  1 0
s   6 1.0 
    27032.3800000000         0.8598581393
     4052.3870000000         1.6055304059
      922.3272000000         2.7458780898
      261.2407000000         4.2987677378
       85.3546400000         5.8797670930
       31.0350400000         6.3163984679
s   2 1.0 
       12.2608600000         2.9812145398
        4.9987080000         0.9419560379
s   1 1.0 
        1.1703110000         0.8019292557
s   1 1.0 
        0.4647474000         0.4011647998
s   1 1.0 
        0.1850454000         0.2010799703
p   4 1.0 
       63.2749500000         3.0572013698
       14.6270500000         3.3844845670
        4.4501220000         2.9474258212
        1.5275800000         1.7118271901
p   1 1.0 
        0.5293512000         0.6436058239
p   1 1.0 
        0.1747842000         0.1610897108
d   1 1.0 
        2.3140000000        12.3767310624
d   1 1.0 
        0.6450000000         1.3234257612
f   1 1.0 
        1.4280000000        12.7097950062

  2 0
s   6 1.0 
    13575.3500000000         0.5435905009
     2035.2330000000         1.0145543008
      463.2256000000         1.7315731015
      131.2002000000         2.6910371555
       42.8530200000         3.6044547316
       15.5841900000         3.7025565440
s   2 1.0 
        6.2067140000         1.8383540114
        2.5764900000         0.5447576606
s   1 1.0 
        0.5769634000         0.4718145074
s   1 1.0 
        0.2297283000         0.2364944571
s   1 1.0 
        0.0951644400         0.1221141848
p   4 1.0 
       34.6972300000         1.3596652360
        7.9582620000         1.4512590746
        2.3780830000         1.2709231872
        0.8143321000         0.8025721831
p   1 1.0 
        0.2888755000         0.3018759228
p   1 1.0 
        0.1005682000         0.0807264648
d   1 1.0 
        1.0970000000         3.3522135855
d   1 1.0 
        0.3180000000         0.3838994974
f   1 1.0 
        0.7610000000         3.0840084332

  3 0
s   6 1.0 
    13575.3500000000         0.5435905009
     2035.2330000000         1.0145543008
      463.2256000000         1.7315731015
      131.2002000000         2.6910371555
       42.8530200000         3.6044547316
       15.5841900000         3.7025565440
s   2 1.0 
        6.2067140000         1.8383540114
        2.5764900000         0.5447576606
s   1 1.0 
        0.5769634000         0.4718145074
s   1 1.0 
        0.2297283000         0.2364944571
s   1 1.0 
        0.0951644400         0.1221141848
p   4 1.0 
       34.6972300000         1.3596652360
        7.9582620000         1.4512590746
        2.3780830000         1.2709231872
        0.8143321000         0.8025721831
p   1 1.0 
        0.2888755000         0.3018759228
p   1 1.0 
        0.1005682000         0.0807264648
d   1 1.0 
        1.0970000000         3.3522135855
d   1 1.0 
        0.3180000000         0.3838994974
f   1 1.0 
        0.7610000000         3.0840084332

  4 0
s   6 1.0 
    13575.3500000000         0.5435905009
     2035.2330000000         1.0145543008
      463.2256000000         1.7315731015
      131.2002000000         2.6910371555
       42.8530200000         3.6044547316
       15.5841900000         3.7025565440
s   2 1.0 
        6.2067140000         1.8383540114
        2.5764900000         0.5447576606
s   1 1.0 
        0.5769634000         0.4718145074
s   1 1.0 
        0.2297283000         0.2364944571
s   1 1.0 
        0.0951644400         0.1221141848
p   4 1.0 
       34.6972300000         1.3596652360
        7.9582620000         1.4512590746
        2.3780830000         1.2709231872
        0.8143321000         0.8025721831
p   1 1.0 
        0.2888755000         0.3018759228
p   1 1.0 
        0.1005682000         0.0807264648
d   1 1.0 
        1.0970000000         3.3522135855
d   1 1.0 
        0.3180000000         0.3838994974
f   1 1.0 
        0.7610000000         3.0840084332

  5 0
s   3 1.0 
       34.0613400000         0.2556298765
        5.1235750000         0.4613598729
        1.1646630000         0.6811216893
s   1 1.0 
        0.3272304000         0.3083545241
s   1 1.0 
        0.1030724000         0.1296483171
p   1 1.0 
        0.8000000000         1.0784563492

  6 0
s   3 1.0 
       34.0613400000         0.2556298765
        5.1235750000         0.4613598729
        1.1646630000         0.6811216893
s   1 1.0 
        0.3272304000         0.3083545241
s   1 1.0 
        0.1030724000         0.1296483171
p   1 1.0 
        0.8000000000         1.0784563492

  7 0
s   3 1.0 
       34.0613400000         0.2556298765
        5.1235750000         0.4613598729
        1.1646630000         0.6811216893
s   1 1.0 
        0.3272304000         0.3083545241
s   1 1.0 
        0.1030724000         0.1296483171
p   1 1.0 
        0.8000000000         1.0784563492

  8 0
s   3 1.0 
       34.0613400000         0.2556298765
        5.1235750000         0.4613598729
        1.1646630000         0.6811216893
s   1 1.0 
        0.3272304000         0.3083545241
s   1 1.0 
        0.1030724000         0.1296483171
p   1 1.0 
        0.8000000000         1.0784563492

  9 0
s   3 1.0 
       34.0613400000         0.2556298765
        5.1235750000         0.4613598729
        1.1646630000         0.6811216893
s   1 1.0 
        0.3272304000         0.3083545241
s   1 1.0 
        0.1030724000         0.1296483171
p   1 1.0 
        0.8000000000         1.0784563492

 10 0
s   3 1.0 
       34.0613400000         0.2556298765
        5.1235750000         0.4613598729
        1.1646630000         0.6811216893
s   1 1.0 
        0.3272304000         0.3083545241
s   1 1.0 
        0.1030724000         0.1296483171
p   1 1.0 
        0.8000000000         1.0784563492

[5D]
[7F]
[9G]
[MO]
 Sym=     1a
 Ene= -1.92055742399149E+01
 Spin= Alpha
 Occup= 2.000000
  1      -0.435382921885
  2      -0.639604945557
  3      -0.034927001042
  4       0.028847233738
  5      -0.010124362997
  6      -0.000561899749
  7       0.000886851294
  8       0.001832135489
  9       0.001593649918
 10      -0.002612710649
 11      -0.005502753282
 12      -0.000137228657
 13       0.000221091669
 14       0.000433488405
 15      -0.000194303089
 16       0.000125347458
 17      -0.000225683361
 18      -0.000009271518
 19       0.000016791184
 20       0.000960053891
 21      -0.000589170979
 22       0.001004915368
 23      -0.000063341348
 24      -0.000191069998
 25      -0.000068184122
 26       0.000080310674
 27      -0.000124542193
 28       0.000037574893
 29       0.000066348639
 30       0.000020492562
 31      -0.000001121321
 32      -0.000043130096
 33       0.000258640219
 34      -0.000762401650
 35      -0.004330048276
 36       0.001413208016
 37       0.000162957409
 38      -0.000267495982
 39      -0.000572151370
 40       0.002117633741
 41      -0.003524079923
 42      -0.007479096182
 43      -0.001255230207
 44       0.002056378707
 45       0.004497088399
 46      -0.000249729556
 47       0.000127729106
 48      -0.000213086005
 49       0.000055652654
 50       0.000103407394
 51      -0.002927030712
 52       0.001876020371
 53      -0.003315447358
 54      -0.000099275976
 55       0.000241928009
 56      -0.000099693866
 57      -0.000015939308
 58       0.000125508171
 59       0.000103037339
 60       0.000103262737
 61       0.000128034632
 62      -0.000033723655
 63      -0.000017473274
 64       0.000084055808
 65      -0.000349917071
 66      -0.001160816016
 67       0.001930163760
 68      -0.000025818494
 69       0.000020448612
 70      -0.000193160455
 71       0.000049043138
 72       0.000876415055
 73      -0.000490734506
 74       0.000378850087
 75      -0.000791424585
 76      -0.000059337036
 77      -0.000083361299
 78       0.000004992635
 79       0.000030099690
 80       0.000043504443
 81       0.000051606055
 82      -0.000450433826
 83      -0.000208690339
 84       0.000308499745
 85      -0.000837559851
 86      -0.000819988565
 87      -0.000061737555
 88      -0.000053370462
 89       0.000086862455
 90      -0.000046955332
 91      -0.000040984106
 92       0.000063880926
 93      -0.000039833066
 94      -0.000017714357
 95       0.000085217976
 96      -0.000353220772
 97      -0.001183501640
 98       0.001797830340
 99       0.000098877745
100      -0.000150208430
101      -0.000081572430
102       0.000040798801
103      -0.000943456540
104       0.000389718823
105      -0.000122156794
106       0.000373214591
107      -0.000755843022
108      -0.000016166192
109       0.000016160100
110      -0.000022782060
111       0.000071053312
112       0.000080565416
113       0.001020998561
114       0.000111158529
115      -0.000753805625
116      -0.000305411748
117      -0.000151468292
118       0.000063460928
119      -0.000042059821
120       0.000098231043
121       0.000069225921
122       0.000055317219
123      -0.000001531966
124       0.000029509528
125      -0.000127805290
126      -0.001060293817
127       0.000163281635
128      -0.000027419665
129       0.000203414815
130      -0.000034185400
131       0.000000594272
132       0.000495289844
133      -0.000362713373
134      -0.000032604584
135       0.000100570585
136       0.000158359883
137       0.000060363830
138       0.000884119954
139      -0.000415047915
140       0.000050648001
141       0.000087643592
142       0.000187273770
143      -0.000130332166
144      -0.001079518526
145       0.000167451170
146       0.000005423097
147      -0.000154091681
148       0.000145325154
149       0.000055527035
150       0.000874158258
151      -0.000402874894
152      -0.000137638738
153       0.000070001082
154       0.000149702860
155       0.000004688466
156       0.000548852262
157      -0.000354694876
158      -0.000054439642
159       0.000065147318
160       0.000176369470
 Sym=     1a
 Ene= -1.03220842348685E+01
 Spin= Alpha
 Occup= 2.000000
  1      -0.000084736785
  2      -0.000357270711
  3       0.003636113219
  4      -0.014931191059
  5       0.000083043487
  6       0.000171018769
  7      -0.000282912312
  8      -0.000601150490
  9      -0.002164730637
 10       0.003581550503
 11       0.007613394126
 12      -0.000043925504
 13       0.000077945528
 14       0.000160240146
 15      -0.000010632390
 16      -0.000020091195
 17       0.000081023178
 18       0.000094462234
 19       0.000084859207
 20      -0.001960128479
 21       0.001243112670
 22      -0.002248565381
 23      -0.000094231677
 24       0.000200449777
 25       0.000180332204
 26      -0.000267948072
 27       0.000491905632
 28      -0.000064688750
 29      -0.000165423890
 30       0.000003817218
 31      -0.000018905794
 32       0.467184814723
 33       0.608419841354
 34       0.038245635198
 35      -0.023337405605
 36       0.017954273814
 37      -0.000260893266
 38       0.000424094351
 39       0.000940931202
 40      -0.003689752535
 41       0.006143049955
 42       0.012946460794
 43       0.001575834099
 44      -0.002596746654
 45      -0.005485980852
 46       0.001399097319
 47      -0.000657082171
 48       0.000853619060
 49      -0.000693092549
 50      -0.000835263114
 51       0.003660594476
 52      -0.002869348523
 53       0.005966196339
 54       0.002007239239
 55       0.001319084087
 56       0.000705115233
 57      -0.000767852665
 58       0.001229247463
 59      -0.000371973884
 60      -0.000671365058
 61      -0.000218210282
 62       0.000004713182
 63       0.000572286198
 64       0.000852313684
 65      -0.000894917321
 66       0.008321812748
 67      -0.007708677009
 68       0.000039884667
 69      -0.000091539899
 70      -0.000023251959
 71       0.000163844672
 72      -0.001376690119
 73       0.004593235877
 74      -0.000800384474
 75       0.001488920931
 76      -0.002129716863
 77      -0.000104201144
 78      -0.000018678399
 79       0.000055851125
 80       0.000000013122
 81      -0.000018766276
 82       0.001016889375
 83      -0.000110758023
 84       0.000107684028
 85       0.000307601994
 86       0.000343353712
 87      -0.000114077545
 88      -0.000222271243
 89       0.000706776115
 90       0.000208809099
 91       0.000113772347
 92      -0.000122736813
 93       0.000132849626
 94       0.000575936372
 95       0.000856651711
 96      -0.000905382028
 97       0.008404312607
 98      -0.007757391754
 99      -0.000006574672
100       0.000034888769
101      -0.000095808100
102      -0.001879181219
103       0.004246209052
104       0.001398365245
105       0.001267551214
106      -0.002394116631
107       0.000242507863
108       0.000060568035
109       0.000031716099
110      -0.000055636953
111       0.000050422782
112       0.000061900915
113      -0.000234552355
114      -0.000441120985
115       0.000977403035
116      -0.000114844205
117      -0.000261537448
118       0.000125607830
119      -0.000297360035
120       0.000470609612
121      -0.000040754214
122      -0.000056071869
123       0.000517004297
124      -0.000228675105
125       0.000005809078
126      -0.000238791275
127       0.000417002406
128      -0.000026870019
129       0.000059327024
130      -0.000358248350
131       0.000023178594
132      -0.000462948514
133       0.000122412344
134      -0.000093602084
135       0.000096539640
136      -0.000208081820
137      -0.000035233519
138      -0.000501945181
139      -0.000387604430
140       0.000014757423
141       0.000135864397
142      -0.000210575756
143       0.000005994224
144      -0.000233145444
145       0.000430499689
146       0.000163288011
147      -0.000295258017
148      -0.000139867740
149      -0.000030455636
150      -0.000503876409
151      -0.000341791210
152       0.000050664648
153      -0.000247197175
154      -0.000021938967
155       0.000018497432
156      -0.000473307479
157       0.000075178461
158       0.000153016765
159      -0.000197312934
160      -0.000003553673
 Sym=     1a
 Ene= -1.02174267782052E+01
 Spin= Alpha
 Occup= 2.000000
  1       0.000004675977
  2      -0.000054591065
  3       0.000621428937
  4      -0.002605043609
  5       0.000723184395
  6       0.000057662691
  7      -0.000152797191
  8      -0.000004555959
  9      -0.000480245891
 10       0.001157132141
 11       0.000268344772
 12       0.000024507836
 13      -0.000286619540
 14       0.000557241044
 15      -0.000027620536
 16      -0.000013404582
 17       0.000040589254
 18       0.000000154021
 19      -0.000008786781
 20       0.000224054933
 21       0.000076401931
 22      -0.000227053799
 23       0.000081747942
 24       0.000125760965
 25       0.000005224546
 26       0.000024864765
 27      -0.000069020382
 28      -0.000017246212
 29      -0.000004908300
 30       0.000006195800
 31      -0.000007507472
 32      -0.000641522599
 33      -0.000744327343
 34      -0.000026395489
 35       0.002855328418
 36      -0.009357233995
 37       0.000202051257
 38      -0.000494992187
 39       0.000136541726
 40      -0.001722723137
 41       0.004350046460
 42      -0.001196906947
 43      -0.002132668205
 44       0.005369169877
 45      -0.002744867914
 46      -0.000028800418
 47       0.000028043554
 48      -0.000021619409
 49       0.000111325015
 50       0.000117132377
 51       0.003883216189
 52      -0.000159310231
 53      -0.000633954366
 54       0.001492116521
 55       0.001571919053
 56      -0.000031038480
 57       0.000178347573
 58      -0.000383859383
 59      -0.000015080017
 60      -0.000064829261
 61      -0.000779067328
 62       0.000314200661
 63      -0.003591707027
 64      -0.004672715963
 65       0.000245615906
 66      -0.003602350088
 67      -0.004170195227
 68       0.000050863685
 69      -0.000101256779
 70       0.000035840110
 71      -0.000852777422
 72       0.002653638417
 73      -0.002081116818
 74      -0.000380160661
 75       0.002317983914
 76      -0.000600666506
 77      -0.000044136674
 78       0.000002780474
 79       0.000021278565
 80       0.000048616513
 81       0.000024814128
 82      -0.000113535554
 83      -0.000576066975
 84       0.001309053503
 85       0.000026045843
 86       0.000039822434
 87       0.000028554945
 88      -0.000034633365
 89       0.000062671879
 90       0.000085936458
 91       0.000100760942
 92      -0.000034026691
 93       0.000031397151
 94       0.467065924124
 95       0.608656209944
 96       0.034451564320
 97      -0.014148881949
 98       0.032582828459
 99      -0.000112112344
100       0.000395487135
101      -0.000081603777
102      -0.000187022021
103       0.000548307005
104       0.000133408983
105      -0.000910659905
106       0.003460718738
107      -0.000872589221
108       0.000063592412
109      -0.000025261285
110       0.000003527477
111      -0.000054858828
112      -0.000039157402
113      -0.000320447794
114      -0.000022153018
115       0.000346283732
116       0.000280516224
117       0.000206459201
118       0.000684962133
119      -0.000310932742
120      -0.001026690361
121      -0.000637772860
122      -0.000586206146
123      -0.000787837190
124       0.000064740328
125      -0.000067784835
126      -0.000829208597
127      -0.001013718554
128      -0.000048039721
129       0.000152089849
130      -0.000063849120
131       0.000027616096
132       0.000231732029
133       0.000188049607
134       0.000027049770
135       0.000057770954
136       0.000085637062
137       0.000034929477
138       0.000436110052
139       0.000808531447
140       0.000006615420
141       0.000015607573
142       0.000096483872
143      -0.000454392935
144      -0.001820648973
145      -0.003767313432
146      -0.000021114558
147      -0.000781930789
148       0.001725633336
149      -0.000434797996
150      -0.002753836399
151      -0.005338000074
152       0.001864752005
153       0.000029272467
154      -0.000699678820
155      -0.000436255981
156      -0.002642110134
157      -0.004967929054
158      -0.000942274931
159      -0.001142900137
160      -0.001317395850
 Sym=     1a
 Ene= -1.02167817417552E+01
 Spin= Alpha
 Occup= 2.000000
  1      -0.000004724135
  2       0.000055008598
  3      -0.000626981428
  4       0.002633758646
  5      -0.000705023107
  6       0.000014326768
  7      -0.000083445114
  8       0.000137882661
  9      -0.000049342127
 10       0.000453737228
 11      -0.001192415682
 12       0.000183716544
 13      -0.000582402210
 14      -0.000104631036
 15      -0.000039262767
 16      -0.000002804451
 17       0.000006416007
 18      -0.000023540805
 19      -0.000022535055
 20       0.000289089414
 21       0.000040942742
 22      -0.000139641514
 23       0.000099942233
 24       0.000112793439
 25       0.000011579257
 26      -0.000029827869
 27       0.000053415438
 28      -0.000002548078
 29      -0.000006445282
 30       0.000040691891
 31      -0.000018391244
 32       0.000647845067
 33       0.000751399066
 34       0.000017939912
 35      -0.002861688742
 36       0.009444050197
 37       0.000130996750
 38      -0.000374909775
 39       0.000369761455
 40      -0.001095792155
 41       0.003294008553
 42      -0.003238338441
 43      -0.001895743522
 44       0.004981668509
 45      -0.003260856324
 46       0.000120462740
 47      -0.000008436927
 48      -0.000043801456
 49      -0.000082037952
 50      -0.000074019469
 51       0.001844384768
 52       0.001329721098
 53      -0.003626815729
 54       0.000636362447
 55       0.001028143371
 56      -0.000324642364
 57      -0.000148421289
 58       0.000689860040
 59       0.000416036620
 60       0.000283640245
 61      -0.000144135558
 62       0.000134810384
 63      -0.467067277770
 64      -0.608660546053
 65      -0.034439969387
 66       0.014196456522
 67      -0.032401466729
 68      -0.000043275747
 69       0.000320705774
 70      -0.000282650516
 71       0.000033645245
 72       0.000166265227
 73      -0.000536851786
 74      -0.000394506892
 75       0.002686871333
 76      -0.002404998042
 77      -0.000046638783
 78       0.000028941641
 79      -0.000016686107
 80       0.000062489687
 81       0.000045923960
 82      -0.000066802140
 83      -0.000014269164
 84      -0.000054121444
 85      -0.000436038059
 86      -0.000366180288
 87      -0.000524072826
 88      -0.000228148554
 89       0.000693533321
 90       0.000907305767
 91       0.000550633068
 92       0.000779272526
 93      -0.000666224519
 94      -0.003591327447
 95      -0.004687825944
 96      -0.000767705760
 97       0.003778522522
 98       0.003634978079
 99       0.000044208077
100      -0.000085523766
101       0.000078408021
102      -0.001139183888
103       0.003027498291
104      -0.001194875318
105      -0.000145988801
106       0.001808155306
107      -0.001519634662
108       0.000011806085
109      -0.000019780767
110      -0.000003844403
111      -0.000054893521
112      -0.000040465674
113      -0.001086146314
114       0.000358607221
115      -0.000404368204
116      -0.000480879000
117      -0.000581162701
118       0.000063579258
119       0.000029704052
120      -0.000022420868
121       0.000060855248
122       0.000042427116
123      -0.000101719248
124       0.000025964973
125       0.000456605699
126       0.001845883607
127       0.003774782542
128       0.000541261399
129      -0.001778644915
130      -0.000368092270
131       0.000434873556
132       0.002606314194
133       0.004925790387
134      -0.001612376712
135       0.000036859918
136       0.001141608527
137       0.000432729978
138       0.002731640350
139       0.005336014199
140       0.001367772408
141       0.000884519010
142       0.001139409453
143       0.000075799492
144       0.000872028100
145       0.001069997201
146      -0.000043191395
147       0.000148387474
148      -0.000126667452
149      -0.000026525572
150      -0.000363123980
151      -0.000724772266
152       0.000013063323
153      -0.000057204483
154      -0.000052878403
155      -0.000024925946
156      -0.000231544270
157      -0.000102348665
158       0.000082097837
159      -0.000007356633
160      -0.000060488033
 Sym=     1a
 Ene= -1.08946024929956E+00
 Spin= Alpha
 Occup= 2.000000
  1      -0.088904689995
  2      -0.209488833433
  3       0.300937419309
  4       0.394956096884
  5       0.124365193161
  6       0.030261860794
  7      -0.048408694532
  8      -0.101775227911
  9       0.023631509166
 10      -0.037446889305
 11      -0.078035456214
 12       0.003774872897
 13      -0.002839440607
 14      -0.005907405205
 15       0.004315482937
 16      -0.002589675698
 17       0.004515746864
 18      -0.000196841479
 19      -0.000921965658
 20       0.009139487984
 21      -0.006169125681
 22       0.010666070919
 23      -0.000096126449
 24      -0.000586174711
 25      -0.001022879680
 26       0.001240484249
 27      -0.002327105543
 28       0.000352784733
 29       0.000996303112
 30       0.000032881814
 31       0.000061497918
 32      -0.057070139390
 33      -0.120215692335
 34       0.186507263872
 35       0.145719379662
 36       0.021956689152
 37      -0.033268782265
 38       0.055682097412
 39       0.118873916020
 40      -0.008866919092
 41       0.014936746971
 42       0.033640772875
 43       0.001829200068
 44      -0.002810990485
 45       0.003070657540
 46       0.013141441974
 47      -0.007354430927
 48       0.011903451559
 49      -0.002586098718
 50      -0.004190965535
 51       0.004703811147
 52      -0.001333618942
 53       0.000956159777
 54      -0.004719936300
 55      -0.005159594978
 56       0.001878337133
 57      -0.003680917640
 58       0.007546174174
 59      -0.000290208179
 60      -0.001664187108
 61       0.000809680765
 62      -0.000537113215
 63      -0.008214361670
 64      -0.017005399740
 65       0.025521957713
 66       0.015230248691
 67      -0.005086024848
 68       0.000253155415
 69      -0.003994014709
 70       0.015849001958
 71      -0.000635496621
 72       0.001275957944
 73       0.004798476435
 74      -0.000082288634
 75      -0.000284892434
 76      -0.000436371947
 77       0.001320583888
 78      -0.000090875068
 79      -0.000191026172
 80       0.000024429527
 81       0.000079420385
 82       0.001104015219
 83      -0.000644635751
 84       0.001109690390
 85       0.000373396887
 86       0.000080107652
 87       0.000902513611
 88      -0.000304159411
 89       0.000305401360
 90      -0.000091730497
 91      -0.000037425845
 92       0.000039652870
 93       0.000042458434
 94      -0.008308221560
 95      -0.017208973513
 96       0.026070063727
 97       0.014353892315
 98      -0.013588415589
 99      -0.006377169447
100       0.014220397723
101       0.005666265667
102      -0.000858654855
103       0.002020565478
104       0.003702868714
105      -0.000004064162
106      -0.003166766253
107      -0.001152980687
108      -0.000204550620
109      -0.000469762762
110       0.000977467247
111      -0.000555377885
112      -0.000624780240
113       0.000804970214
114      -0.000707960913
115       0.000951530275
116       0.000597730625
117       0.000098718550
118      -0.000211776073
119      -0.000370052230
120       0.000519653099
121      -0.000376600619
122      -0.000520401033
123      -0.000325180247
124       0.000054061392
125       0.004912587546
126       0.004639581710
127       0.002182118228
128       0.000277994606
129      -0.001069489567
130       0.000372414173
131       0.002636038314
132       0.002772862203
133       0.001031975484
134      -0.000294665185
135      -0.000117445337
136       0.000698083179
137       0.002974097857
138       0.003564137436
139       0.000997351374
140       0.000367170153
141       0.000001392416
142       0.000922354824
143       0.005023063395
144       0.004627061299
145       0.002412301914
146      -0.000177657659
147       0.000943987103
148      -0.000689690806
149       0.002929896904
150       0.003379004178
151       0.002274423240
152      -0.000637727234
153       0.000606027027
154       0.000317446008
155       0.002708660451
156       0.003440064777
157       0.000498122812
158       0.000041139842
159       0.000703403375
160       0.000489690651
 Sym=     1a
 Ene= -7.92382069199991E-01
 Spin= Alpha
 Occup= 2.000000
  1       0.030414295392
  2       0.072401998772
  3      -0.109882770726
  4      -0.140233085190
  5      -0.071965058357
  6       0.001171616891
  7      -0.003058438782
  8      -0.006189493484
  9       0.001393197633
 10      -0.003199607823
 11      -0.007038680775
 12      -0.000181663502
 13      -0.003324339086
 14      -0.007506801263
 15      -0.000247809278
 16       0.000170275454
 17      -0.000434609638
 18      -0.000245163858
 19      -0.000144306761
 20       0.000384030483
 21       0.000106069412
 22      -0.000369450494
 23      -0.000492057885
 24      -0.000939396931
 25      -0.000032343283
 26      -0.000014853327
 27       0.000166272942
 28       0.000130277420
 29       0.000031293307
 30       0.000137269050
 31      -0.000044862692
 32      -0.045066175487
 33      -0.096365969483
 34       0.153521651621
 35       0.150027031089
 36       0.034110227101
 37       0.033055738693
 38      -0.055248099016
 39      -0.114708759578
 40       0.019876411654
 41      -0.032200649073
 42      -0.069013894603
 43       0.006935744542
 44      -0.005199876091
 45      -0.012740120951
 46      -0.002790580881
 47       0.002820047494
 48      -0.006712649720
 49      -0.003790316739
 50      -0.003079551048
 51      -0.002390819052
 52       0.003017575932
 53      -0.007007235228
 54      -0.003386240766
 55      -0.002526822917
 56      -0.001116304946
 57      -0.000144348919
 58       0.001356322816
 59       0.001153538222
 60       0.001188410981
 61       0.001402848470
 62      -0.000394505871
 63      -0.058097564617
 64      -0.123617094437
 65       0.184568690988
 66       0.217599954163
 67       0.013603195927
 68       0.009333188513
 69      -0.030353582697
 70       0.023546282944
 71       0.008679614370
 72      -0.027120232385
 73       0.021056332636
 74       0.000632558174
 75      -0.004032555340
 76      -0.000845725586
 77       0.000993641224
 78       0.000985662325
 79      -0.003039488239
 80      -0.001114803222
 81      -0.000861813722
 82       0.001387628907
 83       0.002653278446
 84      -0.007658286388
 85      -0.002350626000
 86      -0.001231784075
 87       0.000520563812
 88       0.000966803771
 89      -0.002831776559
 90      -0.002790118375
 91      -0.001816573338
 92      -0.001071937272
 93       0.000890570831
 94      -0.059329209693
 95      -0.126219262414
 96       0.187723127952
 97       0.225531452576
 98       0.014281864943
 99      -0.012517716588
100       0.035038723636
101      -0.012852961313
102      -0.011549161733
103       0.033219034887
104      -0.012343806576
105      -0.004235587275
106      -0.000987669557
107       0.000910595290
108      -0.001685719613
109       0.000404517858
110      -0.000938427927
111      -0.002147092450
112      -0.002095138803
113      -0.005731334951
114       0.001770812044
115      -0.003018199757
116      -0.005240698255
117      -0.004277703002
118       0.001812600547
119      -0.000077284516
120      -0.003243110270