[Molden Format]
[Title]
 Molden file created by orca_2mkl for BaseName=temp

[Atoms] AU
O    1   8          0.6573034412        18.6112286121         4.7226504861 
C    2   6          1.2243970259        17.6725279421         2.7255047598 
C    3   6          0.8571495387        19.0520941603         0.2623412305 
C    4   6          2.3344334953        15.0560320343         2.5590784689 
H    5   1          0.2758811183        20.9923459018         0.6178988718 
H    6   1          2.5898432104        19.0221760161        -0.8636804322 
H    7   1         -0.5978999001        18.0955847111        -0.8545625037 
H    8   1          2.3258428003        14.1660220479         4.4127807535 
H    9   1          4.2765749630        15.1680020872         1.8587610815 
H   10   1          1.2799493050        13.9005174158         1.2088634770 
[GTO]
  1 0
s   6 1.0 
    27032.3800000000         0.8598581393
     4052.3870000000         1.6055304059
      922.3272000000         2.7458780898
      261.2407000000         4.2987677378
       85.3546400000         5.8797670930
       31.0350400000         6.3163984679
s   2 1.0 
       12.2608600000         2.9812145398
        4.9987080000         0.9419560379
s   1 1.0 
        1.1703110000         0.8019292557
s   1 1.0 
        0.4647474000         0.4011647998
s   1 1.0 
        0.1850454000         0.2010799703
p   4 1.0 
       63.2749500000         3.0572013698
       14.6270500000         3.3844845670
        4.4501220000         2.9474258212
        1.5275800000         1.7118271901
p   1 1.0 
        0.5293512000         0.6436058239
p   1 1.0 
        0.1747842000         0.1610897108
d   1 1.0 
        2.3140000000        12.3767310624
d   1 1.0 
        0.6450000000         1.3234257612
f   1 1.0 
        1.4280000000        12.7097950062

  2 0
s   6 1.0 
    13575.3500000000         0.5435905009
     2035.2330000000         1.0145543008
      463.2256000000         1.7315731015
      131.2002000000         2.6910371555
       42.8530200000         3.6044547316
       15.5841900000         3.7025565440
s   2 1.0 
        6.2067140000         1.8383540114
        2.5764900000         0.5447576606
s   1 1.0 
        0.5769634000         0.4718145074
s   1 1.0 
        0.2297283000         0.2364944571
s   1 1.0 
        0.0951644400         0.1221141848
p   4 1.0 
       34.6972300000         1.3596652360
        7.9582620000         1.4512590746
        2.3780830000         1.2709231872
        0.8143321000         0.8025721831
p   1 1.0 
        0.2888755000         0.3018759228
p   1 1.0 
        0.1005682000         0.0807264648
d   1 1.0 
        1.0970000000         3.3522135855
d   1 1.0 
        0.3180000000         0.3838994974
f   1 1.0 
        0.7610000000         3.0840084332

  3 0
s   6 1.0 
    13575.3500000000         0.5435905009
     2035.2330000000         1.0145543008
      463.2256000000         1.7315731015
      131.2002000000         2.6910371555
       42.8530200000         3.6044547316
       15.5841900000         3.7025565440
s   2 1.0 
        6.2067140000         1.8383540114
        2.5764900000         0.5447576606
s   1 1.0 
        0.5769634000         0.4718145074
s   1 1.0 
        0.2297283000         0.2364944571
s   1 1.0 
        0.0951644400         0.1221141848
p   4 1.0 
       34.6972300000         1.3596652360
        7.9582620000         1.4512590746
        2.3780830000         1.2709231872
        0.8143321000         0.8025721831
p   1 1.0 
        0.2888755000         0.3018759228
p   1 1.0 
        0.1005682000         0.0807264648
d   1 1.0 
        1.0970000000         3.3522135855
d   1 1.0 
        0.3180000000         0.3838994974
f   1 1.0 
        0.7610000000         3.0840084332

  4 0
s   6 1.0 
    13575.3500000000         0.5435905009
     2035.2330000000         1.0145543008
      463.2256000000         1.7315731015
      131.2002000000         2.6910371555
       42.8530200000         3.6044547316
       15.5841900000         3.7025565440
s   2 1.0 
        6.2067140000         1.8383540114
        2.5764900000         0.5447576606
s   1 1.0 
        0.5769634000         0.4718145074
s   1 1.0 
        0.2297283000         0.2364944571
s   1 1.0 
        0.0951644400         0.1221141848
p   4 1.0 
       34.6972300000         1.3596652360
        7.9582620000         1.4512590746
        2.3780830000         1.2709231872
        0.8143321000         0.8025721831
p   1 1.0 
        0.2888755000         0.3018759228
p   1 1.0 
        0.1005682000         0.0807264648
d   1 1.0 
        1.0970000000         3.3522135855
d   1 1.0 
        0.3180000000         0.3838994974
f   1 1.0 
        0.7610000000         3.0840084332

  5 0
s   3 1.0 
       34.0613400000         0.2556298765
        5.1235750000         0.4613598729
        1.1646630000         0.6811216893
s   1 1.0 
        0.3272304000         0.3083545241
s   1 1.0 
        0.1030724000         0.1296483171
p   1 1.0 
        0.8000000000         1.0784563492

  6 0
s   3 1.0 
       34.0613400000         0.2556298765
        5.1235750000         0.4613598729
        1.1646630000         0.6811216893
s   1 1.0 
        0.3272304000         0.3083545241
s   1 1.0 
        0.1030724000         0.1296483171
p   1 1.0 
        0.8000000000         1.0784563492

  7 0
s   3 1.0 
       34.0613400000         0.2556298765
        5.1235750000         0.4613598729
        1.1646630000         0.6811216893
s   1 1.0 
        0.3272304000         0.3083545241
s   1 1.0 
        0.1030724000         0.1296483171
p   1 1.0 
        0.8000000000         1.0784563492

  8 0
s   3 1.0 
       34.0613400000         0.2556298765
        5.1235750000         0.4613598729
        1.1646630000         0.6811216893
s   1 1.0 
        0.3272304000         0.3083545241
s   1 1.0 
        0.1030724000         0.1296483171
p   1 1.0 
        0.8000000000         1.0784563492

  9 0
s   3 1.0 
       34.0613400000         0.2556298765
        5.1235750000         0.4613598729
        1.1646630000         0.6811216893
s   1 1.0 
        0.3272304000         0.3083545241
s   1 1.0 
        0.1030724000         0.1296483171
p   1 1.0 
        0.8000000000         1.0784563492

 10 0
s   3 1.0 
       34.0613400000         0.2556298765
        5.1235750000         0.4613598729
        1.1646630000         0.6811216893
s   1 1.0 
        0.3272304000         0.3083545241
s   1 1.0 
        0.1030724000         0.1296483171
p   1 1.0 
        0.8000000000         1.0784563492

[5D]
[7F]
[9G]
[MO]
 Sym=     1a
 Ene= -1.92055097002707E+01
 Spin= Alpha
 Occup= 2.000000
  1      -0.435382932232
  2      -0.639604992978
  3      -0.034926967551
  4       0.028847667513
  5      -0.010123546553
  6      -0.000561889701
  7       0.000886898761
  8       0.001832603844
  9       0.001593725083
 10      -0.002612863541
 11      -0.005503409257
 12      -0.000137142828
 13       0.000220957812
 14       0.000433389053
 15      -0.000194307206
 16       0.000125348566
 17      -0.000225695379
 18      -0.000009280489
 19       0.000016791435
 20       0.000960167658
 21      -0.000589216226
 22       0.001005003023
 23      -0.000063335343
 24      -0.000191072616
 25      -0.000068200279
 26       0.000080318717
 27      -0.000124560134
 28       0.000037576418
 29       0.000066354759
 30       0.000020491966
 31      -0.000001120720
 32      -0.000043133835
 33       0.000258661204
 34      -0.000762417441
 35      -0.004330703394
 36       0.001413124567
 37       0.000162971620
 38      -0.000267517617
 39      -0.000572192704
 40       0.002117826091
 41      -0.003524375772
 42      -0.007479770838
 43      -0.001255266886
 44       0.002056481746
 45       0.004496783020
 46      -0.000249763639
 47       0.000127748844
 48      -0.000213116876
 49       0.000055656109
 50       0.000103416321
 51      -0.002927144093
 52       0.001876170123
 53      -0.003315714481
 54      -0.000099256564
 55       0.000241991269
 56      -0.000099695253
 57      -0.000015930760
 58       0.000125504224
 59       0.000103047976
 60       0.000103282051
 61       0.000128047593
 62      -0.000033725895
 63      -0.000017474071
 64       0.000084059923
 65      -0.000349931837
 66      -0.001160944483
 67       0.001929893890
 68      -0.000025818240
 69       0.000020445772
 70      -0.000193171637
 71       0.000049026647
 72       0.000876522760
 73      -0.000490824448
 74       0.000378832326
 75      -0.000791333635
 76      -0.000059385282
 77      -0.000083370761
 78       0.000004994185
 79       0.000030100267
 80       0.000043504948
 81       0.000051607817
 82      -0.000450445108
 83      -0.000208721358
 84       0.000308560427
 85      -0.000837579940
 86      -0.000820019874
 87      -0.000061734970
 88      -0.000053375560
 89       0.000086870315
 90      -0.000046958529
 91      -0.000040986667
 92       0.000063884381
 93      -0.000039834744
 94      -0.000017714519
 95       0.000085218120
 96      -0.000353217533
 97      -0.001183540009
 98       0.001798009276
 99       0.000098877771
100      -0.000150211110
101      -0.000081572440
102       0.000040824453
103      -0.000943492186
104       0.000389692610
105      -0.000122175092
106       0.000373259175
107      -0.000755783489
108      -0.000016166184
109       0.000016161539
110      -0.000022783414
111       0.000071056079
112       0.000080567772
113       0.001021019427
114       0.000111158462
115      -0.000753829702
116      -0.000305406003
117      -0.000151459562
118       0.000063462935
119      -0.000042062244
120       0.000098234596
121       0.000069228147
122       0.000055319182
123      -0.000001533863
124       0.000029510360
125      -0.000127810168
126      -0.001060355485
127       0.000163272094
128      -0.000027421143
129       0.000203429484
130      -0.000034192269
131       0.000000593050
132       0.000495292797
133      -0.000362694268
134      -0.000032601168
135       0.000100574956
136       0.000158365936
137       0.000060366919
138       0.000884150914
139      -0.000415028871
140       0.000050647077
141       0.000087644904
142       0.000187281586
143      -0.000130331016
144      -0.001079536473
145       0.000167425361
146       0.000005422583
147      -0.000154092250
148       0.000145329198
149       0.000055528768
150       0.000874136733
151      -0.000402872040
152      -0.000137633831
153       0.000070001085
154       0.000149704720
155       0.000004690671
156       0.000548843812
157      -0.000354688261
158      -0.000054440677
159       0.000065145095
160       0.000176371244
 Sym=     1a
 Ene= -1.03220464253894E+01
 Spin= Alpha
 Occup= 2.000000
  1       0.000084737926
  2       0.000357250438
  3      -0.003635786168
  4       0.014930504805
  5      -0.000083537209
  6      -0.000170988987
  7       0.000282875190
  8       0.000601059289
  9       0.002164571037
 10      -0.003581291279
 11      -0.007612750570
 12       0.000043905029
 13      -0.000077907468
 14      -0.000160125256
 15       0.000010656210
 16       0.000020082186
 17      -0.000081011472
 18      -0.000094472048
 19      -0.000084870873
 20       0.001959817583
 21      -0.001242957980
 22       0.002248321429
 23       0.000094297891
 24      -0.000200351679
 25      -0.000180271101
 26       0.000267881608
 27      -0.000491792838
 28       0.000064659540
 29       0.000165371817
 30      -0.000003830551
 31       0.000018905462
 32      -0.467184803854
 33      -0.608419832843
 34      -0.038246130772
 35       0.023340561013
 36      -0.017954450884
 37       0.000260428109
 38      -0.000423305983
 39      -0.000939961730
 40       0.003690358105
 41      -0.006144287306
 42      -0.012946781681
 43      -0.001575914373
 44       0.002596880505
 45       0.005486164827
 46      -0.001398916650
 47       0.000656991627
 48      -0.000853473095
 49       0.000693093023
 50       0.000835251212
 51      -0.003660775260
 52       0.002869276405
 53      -0.005966120200
 54      -0.002007713441
 55      -0.001319595285
 56      -0.000705097856
 57       0.000767791451
 58      -0.001229117128
 59       0.000371975470
 60       0.000671351528
 61       0.000218279370
 62      -0.000004740236
 63      -0.000572570045
 64      -0.000852687629
 65       0.000895029131
 66      -0.008322331222
 67       0.007708760848
 68      -0.000039877866
 69       0.000091531465
 70       0.000023267310
 71      -0.000163922936
 72       0.001376850614
 73      -0.004593529940
 74       0.000800410371
 75      -0.001488984531
 76       0.002129683365
 77       0.000104192250
 78       0.000018675736
 79      -0.000055838983
 80      -0.000000014894
 81       0.000018763876
 82      -0.001016939416
 83       0.000110759001
 84      -0.000107627146
 85      -0.000307540651
 86      -0.000343285200
 87       0.000114075165
 88       0.000222277892
 89      -0.000706787980
 90      -0.000208803795
 91      -0.000113768052
 92       0.000122739212
 93      -0.000132851003
 94      -0.000576527630
 95      -0.000857417269
 96       0.000905648039
 97      -0.008406375052
 98       0.007757714735
 99       0.000006571643
100      -0.000034866244
101       0.000095804378
102       0.001879691595
103      -0.004247509725
104      -0.001398347431
105      -0.001267548863
106       0.002394122438
107      -0.000242527525
108      -0.000060546506
109      -0.000031712601
110       0.000055629310
111      -0.000050396571
112      -0.000061869710
113       0.000234791193
114       0.000441125653
115      -0.000977426623
116       0.000115095445
117       0.000261782000
118      -0.000125618733
119       0.000297371152
120      -0.000470608177
121       0.000040763985
122       0.000056083672
123      -0.000516999767
124       0.000228678338
125      -0.000005802093
126       0.000238831377
127      -0.000416991163
128       0.000026866781
129      -0.000059327471
130       0.000358249993
131      -0.000023175691
132       0.000462965975
133      -0.000122422996
134       0.000093601320
135      -0.000096556845
136       0.000208094353
137       0.000035230314
138       0.000501912067
139       0.000387602544
140      -0.000014756917
141      -0.000135878115
142       0.000210579750
143      -0.000006004941
144       0.000233129264
145      -0.000430538644
146      -0.000163298252
147       0.000295274336
148       0.000139880559
149       0.000030457285
150       0.000503964901
151       0.000341746027
152      -0.000050692268
153       0.000247243502
154       0.000021947252
155      -0.000018499698
156       0.000473374532
157      -0.000075210194
158      -0.000153033503
159       0.000197355239
160       0.000003562307
 Sym=     1a
 Ene= -1.02174942217962E+01
 Spin= Alpha
 Occup= 2.000000
  1       0.000004678392
  2      -0.000054617719
  3       0.000621741671
  4      -0.002606574268
  5       0.000723742139
  6       0.000057648904
  7      -0.000152721447
  8      -0.000004633182
  9      -0.000480182562
 10       0.001156726214
 11       0.000269061183
 12       0.000024443932
 13      -0.000286400807
 14       0.000557331115
 15      -0.000027588204
 16      -0.000013404796
 17       0.000040580982
 18       0.000000176032
 19      -0.000008762656
 20       0.000223826148
 21       0.000076377013
 22      -0.000226930879
 23       0.000081633740
 24       0.000125627111
 25       0.000005223708
 26       0.000024880267
 27      -0.000069043859
 28      -0.000017234846
 29      -0.000004893677
 30       0.000006178196
 31      -0.000007496697
 32      -0.000642487591
 33      -0.000745536651
 34      -0.000025992106
 35       0.002854320710
 36      -0.009362521590
 37       0.000201987102
 38      -0.000494766249
 39       0.000136314570
 40      -0.001722597962
 41       0.004349078762
 42      -0.001194730435
 43      -0.002131650063
 44       0.005366645271
 45      -0.002743228316
 46      -0.000028855784
 47       0.000028052007
 48      -0.000021623534
 49       0.000111395439
 50       0.000117195960
 51       0.003882127739
 52      -0.000160167306
 53      -0.000631404217
 54       0.001492001425
 55       0.001571648690
 56      -0.000030867167
 57       0.000178442065
 58      -0.000384270308
 59      -0.000015328848
 60      -0.000065005953
 61      -0.000778996341
 62       0.000314110989
 63      -0.003319693088
 64      -0.004318238816
 65       0.000265537396
 66      -0.003609753763
 67      -0.004152167810
 68       0.000050882906
 69      -0.000101435525
 70       0.000035989039
 71      -0.000852700037
 72       0.002653302909
 73      -0.002080324872
 74      -0.000379972243
 75       0.002316550692
 76      -0.000599419642
 77      -0.000044101814
 78       0.000002765710
 79       0.000021282919
 80       0.000048577475
 81       0.000024784889
 82      -0.000113352819
 83      -0.000576031869
 84       0.001308948829
 85       0.000026290132
 86       0.000040008479
 87       0.000028875717
 88      -0.000034497904
 89       0.000062247967
 90       0.000085402676
 91       0.000100430592
 92      -0.000034480883
 93       0.000031786564
 94       0.467067940803
 95       0.608658881052
 96       0.034451443329
 97      -0.014149294780
 98       0.032581307757
 99      -0.000112369935
100       0.000394690852
101      -0.000082633758
102      -0.000186658225
103       0.000548231764
104       0.000135067776
105      -0.000910816032
106       0.003459714537
107      -0.000872094130
108       0.000063597816
109      -0.000025191989
110       0.000003579640
111      -0.000054802351
112      -0.000039073554
113      -0.000320046920
114      -0.000022536775
115       0.000346640815
116       0.000280351043
117       0.000206376660
118       0.000684902438
119      -0.000310937159
120      -0.001026725890
121      -0.000637821390
122      -0.000586266314
123      -0.000787858604
124       0.000064771325
125      -0.000068051334
126      -0.000830261331
127      -0.001015889327
128      -0.000048353149
129       0.000153128741
130      -0.000063643551
131       0.000027358730
132       0.000230213117
133       0.000185243681
134       0.000027992876
135       0.000057755840
136       0.000084961979
137       0.000034676784
138       0.000434549208
139       0.000805509878
140       0.000005819467
141       0.000015093479
142       0.000095815974
143      -0.000454431343
144      -0.001821335916
145      -0.003767693851
146      -0.000021070686
147      -0.000782054098
148       0.001725641941
149      -0.000434759135
150      -0.002753625341
151      -0.005337614515
152       0.001864741246
153       0.000029279403
154      -0.000699653015
155      -0.000436215815
156      -0.002641759074
157      -0.004968278934
158      -0.000942414629
159      -0.001142973783
160      -0.001317467474
 Sym=     1a
 Ene= -1.02167962615950E+01
 Spin= Alpha
 Occup= 2.000000
  1      -0.000004721258
  2       0.000054974035
  3      -0.000626592383
  4       0.002632211893
  5      -0.000704676624
  6       0.000014358912
  7      -0.000083528833
  8       0.000137868135
  9      -0.000049616512
 10       0.000454378857
 11      -0.001192208295
 12       0.000183739710
 13      -0.000582604309
 14      -0.000104258733
 15      -0.000039274146
 16      -0.000002811222
 17       0.000006434576
 18      -0.000023541093
 19      -0.000022540371
 20       0.000289184973
 21       0.000040982181
 22      -0.000139744619
 23       0.000099991218
 24       0.000112866259
 25       0.000011587506
 26      -0.000029812533
 27       0.000053370481
 28      -0.000002557871
 29      -0.000006447342
 30       0.000040692430
 31      -0.000018394211
 32       0.000647759738
 33       0.000751344329
 34       0.000017729584
 35      -0.002858760804
 36       0.009438552842
 37       0.000131113632
 38      -0.000375193038
 39       0.000369846729
 40      -0.001096826565
 41       0.003296713214
 42      -0.003239530399
 43      -0.001897055080
 44       0.004984974404
 45      -0.003262554177
 46       0.000120461683
 47      -0.000008419370
 48      -0.000043824940
 49      -0.000081973031
 50      -0.000073951782
 51       0.001846647509
 52       0.001329670940
 53      -0.003627312795
 54       0.000637075791
 55       0.001028925719
 56      -0.000324666741
 57      -0.000148319662
 58       0.000689642235
 59       0.000416025435
 60       0.000283598849
 61      -0.000144588305
 62       0.000134992818
 63      -0.467069295451
 64      -0.608663176709
 65      -0.034439558033
 66       0.014193514875
 67      -0.032404229798
 68      -0.000043327288
 69       0.000320709047
 70      -0.000282172099
 71       0.000033161489
 72       0.000167994050
 73      -0.000538920570
 74      -0.000394790142
 75       0.002688374586
 76      -0.002405330132
 77      -0.000046645716
 78       0.000028953568
 79      -0.000016692292
 80       0.000062503393
 81       0.000045932455
 82      -0.000067104703
 83      -0.000014650563
 84      -0.000053164010
 85      -0.000435935896
 86      -0.000366111861
 87      -0.000524081484
 88      -0.000228176874
 89       0.000693606324
 90       0.000907373803
 91       0.000550701793
 92       0.000779246401
 93      -0.000666199493
 94      -0.003319313504
 95      -0.004333353210
 96      -0.000747574551
 97       0.003769909523
 98       0.003654319825
 99       0.000044139457
100      -0.000085277537
101       0.000078366975
102      -0.001139194236
103       0.003027598659
104      -0.001194805881
105      -0.000146535732
106       0.001810261403
107      -0.001520161666
108       0.000011843941
109      -0.000019795789
110      -0.000003842563
111      -0.000054922972
112      -0.000040485996
113      -0.001086288939
114       0.000358594853
115      -0.000404181922
116      -0.000480662729
117      -0.000580986848
118       0.000063977636
119       0.000029521352
120      -0.000023014336
121       0.000060484516
122       0.000042087952
123      -0.000102168288
124       0.000025999102
125       0.000456562667
126       0.001845463255
127       0.003774102906
128       0.000541230540
129      -0.001778551468
130      -0.000368103055
131       0.000434877758
132       0.002606394493
133       0.004926016856
134      -0.001612387966
135       0.000036893642
136       0.001141677444
137       0.000432732368
138       0.002731852173
139       0.005336569940
140       0.001367788382
141       0.000884533360
142       0.001139481690
143       0.000075534777
144       0.000870951000
145       0.001067800581
146      -0.000043205307
147       0.000147934262
148      -0.000125658364
149      -0.000026776652
150      -0.000364747945
151      -0.000727930405
152       0.000014149938
153      -0.000057186290
154      -0.000053285448
155      -0.000025177648
156      -0.000233087759
157      -0.000105260948
158       0.000081550186
159      -0.000008017671
160      -0.000061253040
 Sym=     1a
 Ene= -1.08938873283454E+00
 Spin= Alpha
 Occup= 2.000000
  1       0.088901966501
  2       0.209482486627
  3      -0.300931239993
  4      -0.394944187989
  5      -0.124327215081
  6      -0.030260327200
  7       0.048410201191
  8       0.101785974807
  9      -0.023629091422
 10       0.037445622262
 11       0.078042703687
 12      -0.003769752773
 13       0.002835674658
 14       0.005915321797
 15      -0.004315584049
 16       0.002589816022
 17      -0.004516069442
 18       0.000196774111
 19       0.000921673485
 20      -0.009139686571
 21       0.006167863316
 22      -0.010665394683
 23       0.000095419365
 24       0.000588476822
 25       0.001022642805
 26      -0.001240597622
 27       0.002326980294
 28      -0.000352862980
 29      -0.000995941285
 30      -0.000033133369
 31      -0.000061482285
 32       0.057074645463
 33       0.120225248230
 34      -0.186515714057
 35      -0.145768394709
 36      -0.021940595803
 37       0.033268896935
 38      -0.055679871636
 39      -0.118871754661
 40       0.008868970529
 41      -0.014937316313
 42      -0.033640961333
 43      -0.001824089530
 44       0.002807456044
 45      -0.003069200092
 46      -0.013141132266
 47       0.007354132669
 48      -0.011902977569
 49       0.002586312358
 50       0.004191257875
 51      -0.004706756604
 52       0.001334510462
 53      -0.000953205003
 54       0.004722058131
 55       0.005161330295
 56      -0.001878496523
 57       0.003681404057
 58      -0.007546750075
 59       0.000290009940
 60       0.001664271948
 61      -0.000809872334
 62       0.000537014162
 63       0.008217292954
 64       0.017011669872
 65      -0.025533684037
 66      -0.015227448218
 67       0.005077054551
 68      -0.000253485280
 69       0.003996021861
 70      -0.015852852877
 71       0.000636724670
 72      -0.001277489828
 73      -0.004794664695
 74       0.000080791541
 75       0.000284583301
 76       0.000434741130
 77      -0.001320648895
 78       0.000090906936
 79       0.000191186826
 80      -0.000024376364
 81      -0.000079404930
 82      -0.001102647954
 83       0.000644671407
 84      -0.001111134830
 85      -0.000373399041
 86      -0.000080433211
 87      -0.000902386853
 88       0.000304247952
 89      -0.000305507334
 90       0.000091723176
 91       0.000037437267
 92      -0.000039608031
 93      -0.000042507918
 94       0.008311968895
 95       0.017216971202
 96      -0.026083442292
 97      -0.014360406013
 98       0.013570376509
 99       0.006379579754
100      -0.014224661033
101      -0.005666413794
102       0.000860104144
103      -0.002021384213
104      -0.003702624590
105       0.000004220698
106       0.003160616771
107       0.001150966378
108       0.000204741960
109       0.000469659758
110      -0.000977337338
111       0.000555416679
112       0.000624960845
113      -0.000805185624
114       0.000707830294
115      -0.000951939561
116      -0.000597294768
117      -0.000098797221
118       0.000211714470
119       0.000370010304
120      -0.000519481164
121       0.000376690158
122       0.000520421901
123       0.000325209561
124      -0.000054083017
125      -0.004914394985
126      -0.004640962222
127      -0.002180302110
128      -0.000278049207
129       0.001069921169
130      -0.000372456742
131      -0.002637742425
132      -0.002775103029
133      -0.001030650482
134       0.000295005773
135       0.000117615615
136      -0.000698497286
137      -0.002975787505
138      -0.003565780356
139      -0.000997053911
140      -0.000367375349
141      -0.000001373533
142      -0.000922700750
143      -0.005025228166
144      -0.004628969480
145      -0.002411079851
146       0.000177811258
147      -0.000944286273
148       0.000690157681
149      -0.002932082685
150      -0.003381660750
151      -0.002272169388
152       0.000638347058
153      -0.000606147652
154      -0.000317606153
155      -0.002711223650
156      -0.003442873109
157      -0.000499715168
158      -0.000041140531
159      -0.000703787173
160      -0.000489850243
 Sym=     1a
 Ene= -7.92405072579961E-01
 Spin= Alpha
 Occup= 2.000000
  1      -0.030413523745
  2      -0.072400037892
  3       0.109880408362
  4       0.140222419521
  5       0.071935011473
  6      -0.001166159444
  7       0.003051992821
  8       0.006149698251
  9      -0.001390319987
 10       0.003197495260
 11       0.007008805644
 12       0.000180479723
 13       0.003322609575
 14       0.007485968096
 15       0.000248841632
 16      -0.000170728107
 17       0.000435130850
 18       0.000245182251
 19       0.000144352371
 20      -0.000381323108
 21      -0.000106210370
 22       0.000369406805
 23       0.000492917565
 24       0.000938409215
 25       0.000031900671
 26       0.000015178120
 27      -0.000166615485
 28      -0.000130282211
 29      -0.000031489664
 30      -0.000137230697
 31       0.000044825055
 32       0.045051806870
 33       0.096334921603
 34      -0.153471566021
 35      -0.149962307595
 36      -0.034077521112
 37      -0.033066800705
 38       0.055282245735
 39       0.114699979337
 40      -0.019881808138
 41       0.032225359907
 42       0.069004494794
 43      -0.006929102373
 44       0.005199128557
 45       0.012724703433
 46       0.002792170833
 47      -0.002819853785
 48       0.006711625855
 49       0.003790436757
 50       0.003079599275
 51       0.002397258115
 52      -0.003016693708
 53       0.007000219022
 54       0.003386613500
 55       0.002527550570
 56       0.001116108072
 57       0.000143548316
 58      -0.001354724343
 59      -0.001153624151
 60      -0.001188424875
 61      -0.001403007871
 62       0.000394631159
 63       0.058080203591
 64       0.123580093025
 65      -0.184511666248
 66      -0.217543095385
 67      -0.013621841554
 68      -0.009333976509
 69       0.030354291737
 70      -0.023528997643
 71      -0.008681658370
 72       0.027124614640
 73      -0.021049380983
 74      -0.000638405744
 75       0.004050718657
 76       0.000849341429
 77      -0.000992670961
 78      -0.000985458967
 79       0.003038838005
 80       0.001114350463
 81       0.000861561593
 82      -0.001385154550
 83      -0.002653463346
 84       0.007658445899
 85       0.002354353161
 86       0.001234539430
 87      -0.000519761972
 88      -0.000966679180
 89       0.002831204323
 90       0.002789624560
 91       0.001816372899
 92       0.001071468177
 93      -0.000890133385
 94       0.059351673725
 95       0.126267427177
 96      -0.187799459308
 97      -0.225614825006
 98      -0.014282482626
 99       0.012519498824
100      -0.035020905674
101       0.012869971854
102       0.011544969797
103      -0.033212816386
104       0.012348693869
105       0.004229892960
106       0.000985713998
107      -0.000891223590
108       0.001685100485
109      -0.000405393861
110       0.000937403699
111       0.002146206537
112       0.002093844013
113       0.005729459790
114      -0.001766666623
115       0.003023218715
116       0.005240649806
117       0.004281280798
118      -0.001813005895
119       0.000077052730
120       0.003243921734