[Molden Format]
[Title]
 Molden file created by orca_2mkl for BaseName=temp

[Atoms] AU
O    1   8          0.6573034412        18.6112286121         4.7226504861 
C    2   6          1.2243970259        17.6725279421         2.7255047598 
C    3   6          0.8571495387        19.0520941603         0.2623412305 
C    4   6          2.3344334953        15.0560320343         2.5590784689 
H    5   1          0.2758811183        20.9923459018         0.6178988718 
H    6   1          2.5898432104        19.0221760161        -0.8636804322 
H    7   1         -0.5978999001        18.0955847111        -0.8545625037 
H    8   1          2.3258428003        14.1660220479         4.4127807535 
H    9   1          4.2765749630        15.1680020872         1.8587610815 
H   10   1          1.2799493050        13.9005174158         1.2088634770 
[GTO]
  1 0
s   6 1.0 
    27032.3800000000         0.8598581393
     4052.3870000000         1.6055304059
      922.3272000000         2.7458780898
      261.2407000000         4.2987677378
       85.3546400000         5.8797670930
       31.0350400000         6.3163984679
s   2 1.0 
       12.2608600000         2.9812145398
        4.9987080000         0.9419560379
s   1 1.0 
        1.1703110000         0.8019292557
s   1 1.0 
        0.4647474000         0.4011647998
s   1 1.0 
        0.1850454000         0.2010799703
p   4 1.0 
       63.2749500000         3.0572013698
       14.6270500000         3.3844845670
        4.4501220000         2.9474258212
        1.5275800000         1.7118271901
p   1 1.0 
        0.5293512000         0.6436058239
p   1 1.0 
        0.1747842000         0.1610897108
d   1 1.0 
        2.3140000000        12.3767310624
d   1 1.0 
        0.6450000000         1.3234257612
f   1 1.0 
        1.4280000000        12.7097950062

  2 0
s   6 1.0 
    13575.3500000000         0.5435905009
     2035.2330000000         1.0145543008
      463.2256000000         1.7315731015
      131.2002000000         2.6910371555
       42.8530200000         3.6044547316
       15.5841900000         3.7025565440
s   2 1.0 
        6.2067140000         1.8383540114
        2.5764900000         0.5447576606
s   1 1.0 
        0.5769634000         0.4718145074
s   1 1.0 
        0.2297283000         0.2364944571
s   1 1.0 
        0.0951644400         0.1221141848
p   4 1.0 
       34.6972300000         1.3596652360
        7.9582620000         1.4512590746
        2.3780830000         1.2709231872
        0.8143321000         0.8025721831
p   1 1.0 
        0.2888755000         0.3018759228
p   1 1.0 
        0.1005682000         0.0807264648
d   1 1.0 
        1.0970000000         3.3522135855
d   1 1.0 
        0.3180000000         0.3838994974
f   1 1.0 
        0.7610000000         3.0840084332

  3 0
s   6 1.0 
    13575.3500000000         0.5435905009
     2035.2330000000         1.0145543008
      463.2256000000         1.7315731015
      131.2002000000         2.6910371555
       42.8530200000         3.6044547316
       15.5841900000         3.7025565440
s   2 1.0 
        6.2067140000         1.8383540114
        2.5764900000         0.5447576606
s   1 1.0 
        0.5769634000         0.4718145074
s   1 1.0 
        0.2297283000         0.2364944571
s   1 1.0 
        0.0951644400         0.1221141848
p   4 1.0 
       34.6972300000         1.3596652360
        7.9582620000         1.4512590746
        2.3780830000         1.2709231872
        0.8143321000         0.8025721831
p   1 1.0 
        0.2888755000         0.3018759228
p   1 1.0 
        0.1005682000         0.0807264648
d   1 1.0 
        1.0970000000         3.3522135855
d   1 1.0 
        0.3180000000         0.3838994974
f   1 1.0 
        0.7610000000         3.0840084332

  4 0
s   6 1.0 
    13575.3500000000         0.5435905009
     2035.2330000000         1.0145543008
      463.2256000000         1.7315731015
      131.2002000000         2.6910371555
       42.8530200000         3.6044547316
       15.5841900000         3.7025565440
s   2 1.0 
        6.2067140000         1.8383540114
        2.5764900000         0.5447576606
s   1 1.0 
        0.5769634000         0.4718145074
s   1 1.0 
        0.2297283000         0.2364944571
s   1 1.0 
        0.0951644400         0.1221141848
p   4 1.0 
       34.6972300000         1.3596652360
        7.9582620000         1.4512590746
        2.3780830000         1.2709231872
        0.8143321000         0.8025721831
p   1 1.0 
        0.2888755000         0.3018759228
p   1 1.0 
        0.1005682000         0.0807264648
d   1 1.0 
        1.0970000000         3.3522135855
d   1 1.0 
        0.3180000000         0.3838994974
f   1 1.0 
        0.7610000000         3.0840084332

  5 0
s   3 1.0 
       34.0613400000         0.2556298765
        5.1235750000         0.4613598729
        1.1646630000         0.6811216893
s   1 1.0 
        0.3272304000         0.3083545241
s   1 1.0 
        0.1030724000         0.1296483171
p   1 1.0 
        0.8000000000         1.0784563492

  6 0
s   3 1.0 
       34.0613400000         0.2556298765
        5.1235750000         0.4613598729
        1.1646630000         0.6811216893
s   1 1.0 
        0.3272304000         0.3083545241
s   1 1.0 
        0.1030724000         0.1296483171
p   1 1.0 
        0.8000000000         1.0784563492

  7 0
s   3 1.0 
       34.0613400000         0.2556298765
        5.1235750000         0.4613598729
        1.1646630000         0.6811216893
s   1 1.0 
        0.3272304000         0.3083545241
s   1 1.0 
        0.1030724000         0.1296483171
p   1 1.0 
        0.8000000000         1.0784563492

  8 0
s   3 1.0 
       34.0613400000         0.2556298765
        5.1235750000         0.4613598729
        1.1646630000         0.6811216893
s   1 1.0 
        0.3272304000         0.3083545241
s   1 1.0 
        0.1030724000         0.1296483171
p   1 1.0 
        0.8000000000         1.0784563492

  9 0
s   3 1.0 
       34.0613400000         0.2556298765
        5.1235750000         0.4613598729
        1.1646630000         0.6811216893
s   1 1.0 
        0.3272304000         0.3083545241
s   1 1.0 
        0.1030724000         0.1296483171
p   1 1.0 
        0.8000000000         1.0784563492

 10 0
s   3 1.0 
       34.0613400000         0.2556298765
        5.1235750000         0.4613598729
        1.1646630000         0.6811216893
s   1 1.0 
        0.3272304000         0.3083545241
s   1 1.0 
        0.1030724000         0.1296483171
p   1 1.0 
        0.8000000000         1.0784563492

[5D]
[7F]
[9G]
[MO]
 Sym=     1a
 Ene= -1.91997339353986E+01
 Spin= Alpha
 Occup= 2.000000
  1      -0.435383178153
  2      -0.639605655915
  3      -0.034925272505
  4       0.028849449250
  5      -0.010116228733
  6      -0.000559373027
  7       0.000884678774
  8       0.001837968730
  9       0.001592340830
 10      -0.002611722061
 11      -0.005509778176
 12      -0.000135575274
 13       0.000218490492
 14       0.000433336607
 15      -0.000194365331
 16       0.000125289253
 17      -0.000225756810
 18      -0.000009125836
 19       0.000016907189
 20       0.000961449084
 21      -0.000589250138
 22       0.001005372902
 23      -0.000063223210
 24      -0.000190859574
 25      -0.000068452308
 26       0.000080317182
 27      -0.000124693115
 28       0.000037611818
 29       0.000066349802
 30       0.000020459838
 31      -0.000001171853
 32      -0.000043157969
 33       0.000258818695
 34      -0.000762339453
 35      -0.004336540316
 36       0.001412117501
 37       0.000163090738
 38      -0.000267742069
 39      -0.000572480889
 40       0.002119241446
 41      -0.003526076291
 42      -0.007484551525
 43      -0.001257286468
 44       0.002061005345
 45       0.004491918312
 46      -0.000250013061
 47       0.000127904640
 48      -0.000213332885
 49       0.000055635932
 50       0.000103466457
 51      -0.002926320918
 52       0.001877789557
 53      -0.003318424841
 54      -0.000098499104
 55       0.000243410808
 56      -0.000099473648
 57      -0.000015806911
 58       0.000125452034
 59       0.000103107074
 60       0.000103553339
 61       0.000128188481
 62      -0.000033723836
 63      -0.000017487855
 64       0.000084122633
 65      -0.000350284236
 66      -0.001162231523
 67       0.001923278863
 68      -0.000025805109
 69       0.000020380945
 70      -0.000193347520
 71       0.000048769614
 72       0.000878246872
 73      -0.000491521991
 74       0.000378720513
 75      -0.000789896385
 76      -0.000060983146
 77      -0.000083486942
 78       0.000005025520
 79       0.000030089974
 80       0.000043488958
 81       0.000051627856
 82      -0.000450306117
 83      -0.000209219814
 84       0.000309412201
 85      -0.000837761027
 86      -0.000820456834
 87      -0.000061664149
 88      -0.000053446048
 89       0.000086963310
 90      -0.000046989525
 91      -0.000041016366
 92       0.000063913120
 93      -0.000039854474
 94      -0.000017707843
 95       0.000085179933
 96      -0.000353098966
 97      -0.001182369005
 98       0.001803655487
 99       0.000098841394
100      -0.000150201012
101      -0.000081495414
102       0.000040822431
103      -0.000942498259
104       0.000388932607
105      -0.000122617344
106       0.000374959891
107      -0.000755182532
108      -0.000016161008
109       0.000016164547
110      -0.000022742385
111       0.000071050974
112       0.000080540644
113       0.001020542655
114       0.000111158219
115      -0.000754208767
116      -0.000305422797
117      -0.000151476775
118       0.000063473002
119      -0.000042050930
120       0.000098198300
121       0.000069248910
122       0.000055358141
123      -0.000001566723
124       0.000029507253
125      -0.000127901980
126      -0.001061229087
127       0.000163376660
128      -0.000027435737
129       0.000203654043
130      -0.000034339793
131       0.000000544652
132       0.000495486047
133      -0.000362467078
134      -0.000032558594
135       0.000100621752
136       0.000158476559
137       0.000060393913
138       0.000884832126
139      -0.000414691887
140       0.000050673527
141       0.000087656712
142       0.000187415761
143      -0.000130258624
144      -0.001079240504
145       0.000167112578
146       0.000005405618
147      -0.000153967514
148       0.000145327070
149       0.000055525600
150       0.000873421710
151      -0.000403010881
152      -0.000137510084
153       0.000069949899
154       0.000149674353
155       0.000004735021
156       0.000548649726
157      -0.000354656956
158      -0.000054390326
159       0.000065099580
160       0.000176346168
 Sym=     1a
 Ene= -1.03164998737595E+01
 Spin= Alpha
 Occup= 2.000000
  1       0.000084761498
  2       0.000357000750
  3      -0.003631377868
  4       0.014920919000
  5      -0.000091299945
  6      -0.000170645626
  7       0.000282338893
  8       0.000599823521
  9       0.002162170898
 10      -0.003577755378
 11      -0.007603770290
 12       0.000043607745
 13      -0.000077249817
 14      -0.000158404616
 15       0.000010973804
 16       0.000019953213
 17      -0.000080856109
 18      -0.000094617898
 19      -0.000085035505
 20       0.001955599820
 21      -0.001240799370
 22       0.002245046937
 23       0.000095149507
 24      -0.000198997811
 25      -0.000179453243
 26       0.000266949913
 27      -0.000490290421
 28       0.000064308908
 29       0.000164653930
 30      -0.000004005777
 31       0.000018882193
 32      -0.467184828598
 33      -0.608419814620
 34      -0.038251999766
 35       0.023382675096
 36      -0.017953110194
 37       0.000255145376
 38      -0.000411939286
 39      -0.000926693837
 40       0.003697699030
 41      -0.006161541916
 42      -0.012950480698
 43      -0.001576635984
 44       0.002598513872
 45       0.005488601959
 46      -0.001396630401
 47       0.000655841684
 48      -0.000851384732
 49       0.000693368133
 50       0.000835430707
 51      -0.003663041660
 52       0.002868355190
 53      -0.005964745245
 54      -0.002014348603
 55      -0.001326669083
 56      -0.000704856563
 57       0.000766951232
 58      -0.001227315676
 59       0.000371960353
 60       0.000671218366
 61       0.000219226075
 62      -0.000005156284
 63      -0.000578068789
 64      -0.000859907348
 65       0.000896261130
 66      -0.008328503410
 67       0.007708039139
 68      -0.000039852128
 69       0.000091411822
 70       0.000023460841
 71      -0.000164555519
 72       0.001378934088
 73      -0.004597297986
 74       0.000800555640
 75      -0.001489674690
 76       0.002128844897
 77       0.000104083521
 78       0.000018619942
 79      -0.000055688941
 80      -0.000000044386
 81       0.000018740472
 82      -0.001017536585
 83       0.000110815815
 84      -0.000106905537
 85      -0.000306535763
 86      -0.000342464463
 87       0.000114060911
 88       0.000222383363
 89      -0.000706960660
 90      -0.000208738151
 91      -0.000113707626
 92       0.000122757859
 93      -0.000132868812
 94      -0.000587351502
 95      -0.000871460145
 96       0.000909066092
 97      -0.008434289712
 98       0.007759767488
 99       0.000006493968
100      -0.000034590682
101       0.000095764806
102       0.001887049248
103      -0.004264998926
104      -0.001398015560
105      -0.001267283007
106       0.002393690476
107      -0.000243009117
108      -0.000060253799
109      -0.000031667749
110       0.000055538696
111      -0.000050045515
112      -0.000061456466
113       0.000237934178
114       0.000441015196
115      -0.000977815190
116       0.000118551287
117       0.000265214632
118      -0.000125778675
119       0.000297529299
120      -0.000470575869
121       0.000040882661
122       0.000056258669
123      -0.000516927567
124       0.000228719930
125      -0.000005708430
126       0.000239486457
127      -0.000416711883
128       0.000026832771
129      -0.000059335811
130       0.000358258426
131      -0.000023155255
132       0.000462858253
133      -0.000122113261
134       0.000093635533
135      -0.000096771400
136       0.000208177996
137       0.000035194687
138       0.000501599745
139       0.000387583393
140      -0.000014729022
141      -0.000136076030
142       0.000210664392
143      -0.000006152020
144       0.000233068499
145      -0.000430795211
146      -0.000163423615
147       0.000295518766
148       0.000140035622
149       0.000030440477
150       0.000504930225
151       0.000341277644
152      -0.000051009887
153       0.000247827654
154       0.000022047074
155      -0.000018495955
156       0.000474611420
157      -0.000075335467
158      -0.000153215359
159       0.000198015933
160       0.000003728244
 Sym=     1a
 Ene= -1.02138119186768E+01
 Spin= Alpha
 Occup= 2.000000
  1       0.000004689673
  2      -0.000054740543
  3       0.000623259525
  4      -0.002616854643
  5       0.000729033344
  6       0.000057495451
  7      -0.000151923182
  8      -0.000005118463
  9      -0.000479318297
 10       0.001152293972
 11       0.000274140549
 12       0.000024473930
 13      -0.000286156926
 14       0.000558330906
 15      -0.000027263745
 16      -0.000013423925
 17       0.000040474894
 18       0.000000416689
 19      -0.000008480221
 20       0.000221611539
 21       0.000076166120
 22      -0.000225613634
 23       0.000080242045
 24       0.000123959036
 25       0.000005277673
 26       0.000024972569
 27      -0.000069126083
 28      -0.000017049611
 29      -0.000004669039
 30       0.000006126442
 31      -0.000007421822
 32      -0.000655831363
 33      -0.000762656535
 34      -0.000019109273
 35       0.002820042127
 36      -0.009394500743
 37       0.000201677522
 38      -0.000493065555
 39       0.000134662194
 40      -0.001726836060
 41       0.004351454133
 42      -0.001177054247
 43      -0.002125520224
 44       0.005352900755
 45      -0.002735027930
 46      -0.000029122804
 47       0.000028169282
 48      -0.000022010025
 49       0.000112091788
 50       0.000117816666
 51       0.003874356682
 52      -0.000167067914
 53      -0.000608949424
 54       0.001493704785
 55       0.001573098800
 56      -0.000029901363
 57       0.000179163349
 58      -0.000387140509
 59      -0.000017064774
 60      -0.000066320838
 61      -0.000778605756
 62       0.000313355075
 63      -0.001469318516
 64      -0.001906905710
 65       0.000399704828
 66      -0.003651074485
 67      -0.004037737779
 68       0.000050949208
 69      -0.000102587388
 70       0.000036813515
 71      -0.000851251382
 72       0.002648577862
 73      -0.002069428124
 74      -0.000379088969
 75       0.002308452152
 76      -0.000592791474
 77      -0.000043776681
 78       0.000002693496
 79       0.000021246714
 80       0.000048289803
 81       0.000024573246
 82      -0.000110476913
 83      -0.000575502526
 84       0.001306792436
 85       0.000027735409
 86       0.000040909422
 87       0.000031226891
 88      -0.000033544952
 89       0.000059125579
 90       0.000081751756
 91       0.000098104738
 92      -0.000037577964
 93       0.000034458938
 94       0.467077682011
 95       0.608672630624
 96       0.034442392563
 97      -0.014132546756
 98       0.032571999799
 99      -0.000116975856
100       0.000381211459
101      -0.000101722898
102      -0.000186811265
103       0.000564211518
104       0.000157794120
105      -0.000913901620
106       0.003453882902
107      -0.000873348895
108       0.000063976285
109      -0.000023965058
110       0.000004597940
111      -0.000054031425
112      -0.000037777815
113      -0.000319513108
114      -0.000027182846
115       0.000350448181
116       0.000274633806
117       0.000201594277
118       0.000684219074
119      -0.000310876101
120      -0.001027503826
121      -0.000638277247
122      -0.000587132497
123      -0.000788839164
124       0.000065491040
125      -0.000069872227
126      -0.000837397767
127      -0.001030585710
128      -0.000050476536
129       0.000160267730
130      -0.000062345496
131       0.000025548813
132       0.000220209479
133       0.000166177534
134       0.000034408250
135       0.000057737865
136       0.000080290601
137       0.000032953746
138       0.000424462194
139       0.000785485403
140       0.000000425718
141       0.000011634818
142       0.000091241410
143      -0.000454760895
144      -0.001828023323
145      -0.003766236796
146      -0.000020555810
147      -0.000783221673
148       0.001724786300
149      -0.000434248117
150      -0.002751827157
151      -0.005334965617
152       0.001864507729
153       0.000029068003
154      -0.000699512932
155      -0.000435743743
156      -0.002636940556
157      -0.004973618348
158      -0.000944441558
159      -0.001144333909
160      -0.001319349758
 Sym=     1a
 Ene= -1.02122326527856E+01
 Spin= Alpha
 Occup= 2.000000
  1       0.000004697730
  2      -0.000054715716
  3       0.000623666251
  4      -0.002621341559
  5       0.000703269526
  6      -0.000014601995
  7       0.000084057500
  8      -0.000137672749
  9       0.000051536128
 10      -0.000458384777
 11       0.001190209102
 12      -0.000183925144
 13       0.000584373564
 14       0.000101115025
 15       0.000039299059
 16       0.000002848670
 17      -0.000006507463
 18       0.000023532750
 19       0.000022596649
 20      -0.000289458166
 21      -0.000041226382
 22       0.000140135673
 23      -0.000100277308
 24      -0.000113429277
 25      -0.000011699807
 26       0.000029692402
 27      -0.000053016320
 28       0.000002620776
 29       0.000006454510
 30      -0.000040661584
 31       0.000018398049
 32      -0.000650739336
 33      -0.000755624659
 34      -0.000014215642
 35       0.002824305221
 36      -0.009401442813
 37      -0.000131947509
 38       0.000377019472
 39      -0.000370438693
 40       0.001104883860
 41      -0.003317447575
 42       0.003253841111
 43       0.001906217090
 44      -0.005009045967
 45       0.003275281568
 46      -0.000120630176
 47       0.000008323486
 48       0.000044148915
 49       0.000081524582
 50       0.000073523830
 51      -0.001862568890
 52      -0.001330371353
 53       0.003631933847
 54      -0.000640365010
 55      -0.001032907717
 56       0.000324901177
 57       0.000147718242
 58      -0.000688178589
 59      -0.000415873079
 60      -0.000283325863
 61       0.000147668615
 62      -0.000136204907
 63       0.467078928118
 64       0.608676079350
 65       0.034432558090
 66      -0.014163160231
 67       0.032426240944
 68       0.000047469394
 69      -0.000319373780
 70       0.000273960894
 71      -0.000032576288
 72      -0.000184020171
 73       0.000563019334
 74       0.000398954228
 75      -0.002699274369
 76       0.002407255710
 77       0.000046496471
 78      -0.000029462476
 79       0.000016925194
 80      -0.000062470594
 81      -0.000046188191
 82       0.000071913551
 83       0.000018209981
 84       0.000044140227
 85       0.000434012854
 86       0.000365696503
 87       0.000524396447
 88       0.000228436050
 89      -0.000694562997
 90      -0.000908114641
 91      -0.000551259293
 92      -0.000779019331
 93       0.000665920589
 94       0.001468921901
 95       0.001922050817
 96       0.000609972752
 97      -0.003707932700
 98      -0.003788042382
 99      -0.000043611198
100       0.000083510327
101      -0.000078069179
102       0.001138106504
103      -0.003026257547
104       0.001194143867
105       0.000150383327
106      -0.001825090965
107       0.001523898465
108      -0.000012104767
109       0.000019894779
110       0.000003835932
111       0.000055111773
112       0.000040597156
113       0.001086855344
114      -0.000358355587
115       0.000403022685
116       0.000478670584
117       0.000579217169
118      -0.000066662486
119      -0.000028255058
120       0.000027029932
121      -0.000057970492
122      -0.000039776282
123       0.000105118300
124      -0.000026211793
125      -0.000456275793
126      -0.001842717629
127      -0.003769033379
128      -0.000540992483
129       0.001777967712
130       0.000367929718
131      -0.000434844196
132      -0.002604906717
133      -0.004930528043
134       0.001612999443
135      -0.000037143017
136      -0.001142423524
137      -0.000432646096
138      -0.002733993410
139      -0.005339621739
140      -0.001367710050
141      -0.000884442635
142      -0.001140056692
143      -0.000073732522
144      -0.000863413834
145      -0.001053037105
146       0.000043297503
147      -0.000144860171
148       0.000118737535
149       0.000028472278
150       0.000376076073
151       0.000749762468
152      -0.000021579047
153       0.000057064681
154       0.000056046477
155       0.000026844747
156       0.000243569071
157       0.000125020425
158      -0.000077845566
159       0.000012456611
160       0.000066438730
 Sym=     1a
 Ene= -1.08336920666713E+00
 Spin= Alpha
 Occup= 2.000000
  1       0.088879393510
  2       0.209430041556
  3      -0.300883312827
  4      -0.394971033115
  5      -0.124021465632
  6      -0.030177796374
  7       0.048367073482
  8       0.101907359018
  9      -0.023542749151
 10       0.037398182295
 11       0.078175125649
 12      -0.003573932024
 13       0.002613412502
 14       0.005971382438
 15      -0.004316656245
 16       0.002590947929
 17      -0.004519185951
 18       0.000189767317
 19       0.000917453334
 20      -0.009163091443
 21       0.006145732107
 22      -0.010658125175
 23       0.000184777405
 24       0.000642709918
 25       0.001021308612
 26      -0.001246715783
 27       0.002326271503
 28      -0.000353248194
 29      -0.000989715559
 30      -0.000041246468
 31      -0.000067373398
 32       0.057125439431
 33       0.120328757465
 34      -0.186536129125
 35      -0.146805380115
 36      -0.020516129087
 37       0.033282135195
 38      -0.055648279011
 39      -0.118838011802
 40       0.008855231315
 41      -0.014921409001
 42      -0.033409196855
 43      -0.001723368813
 44       0.002958686886
 45      -0.003195248387
 46      -0.013131414248
 47       0.007344289096
 48      -0.011900309042
 49       0.002589573188
 50       0.004197245915
 51      -0.004754593633
 52       0.001329443309
 53      -0.000790939012
 54       0.004804904462
 55       0.005208130030
 56      -0.001873456320
 57       0.003681607301
 58      -0.007559174970
 59       0.000284852506
 60       0.001664543005
 61      -0.000813132232
 62       0.000536758226
 63       0.008258132171
 64       0.017099283409
 65      -0.025741778602
 66      -0.014898809289
 67       0.004155977665
 68      -0.000264074632
 69       0.004022037129
 70      -0.015906490106
 71       0.000713479187
 72      -0.001360410637
 73      -0.004605902411
 74      -0.000033408461
 75       0.000314309353
 76       0.000151427666
 77      -0.001315159913
 78       0.000092066134
 79       0.000191338371
 80      -0.000023786341
 81      -0.000079951586
 82      -0.001061326420
 83       0.000656343216
 84      -0.001181648283
 85      -0.000376673976
 86      -0.000094626677
 87      -0.000898316492
 88       0.000310608872
 89      -0.000314638099
 90       0.000089217896
 91       0.000034580184
 92      -0.000037735498
 93      -0.000043893574
 94       0.008364758592
 95       0.017330133524
 96      -0.026301771449
 97      -0.014282322071
 98       0.012933569685
 99       0.006415200668
100      -0.014281905586
101      -0.005663526140
102       0.000853997987
103      -0.001982968322
104      -0.003698622089
105       0.000027152074
106       0.002905917354
107       0.001079740311
108       0.000207856932
109       0.000466755234
110      -0.000970874353
111       0.000551371013
112       0.000625697893
113      -0.000833531692
114       0.000700859975
115      -0.000958025107
116      -0.000576888606
117      -0.000109914560
118       0.000208942977
119       0.000370071330
120      -0.000517847665
121       0.000377691996
122       0.000518291467
123       0.000321042267
124      -0.000054706477
125      -0.004945052779
126      -0.004641914635
127      -0.002099191403
128      -0.000278185743
129       0.001078787492
130      -0.000374889000
131      -0.002665396804
132      -0.002819838527
133      -0.000934311367
134       0.000303021489
135       0.000121284971
136      -0.000711066047
137      -0.002998091057
138      -0.003563916066
139      -0.001013492987
140      -0.000368122601
141       0.000000654998
142      -0.000928069030
143      -0.005057627981
144      -0.004620955284
145      -0.002393379429
146       0.000180858492
147      -0.000948209739
148       0.000695994906
149      -0.002966784665
150      -0.003434358948
151      -0.002211923059
152       0.000652308001
153      -0.000608042190
154      -0.000322152967
155      -0.002749428730
156      -0.003503684398
157      -0.000521607835
158      -0.000041216084
159      -0.000713390831
160      -0.000491883172
 Sym=     1a
 Ene= -7.87821308618033E-01
 Spin= Alpha
 Occup= 2.000000
  1      -0.030388497982
  2      -0.072338026833
  3       0.109781816873
  4       0.140106728694
  5       0.071454293728
  6      -0.001136125715
  7       0.003029917825
  8       0.005619950298
  9      -0.001398890947
 10       0.003207379592
 11       0.006585466535
 12       0.000057090660
 13       0.003495233194
 14       0.007310241828
 15       0.000263963803
 16      -0.000177874250
 17       0.000442052074
 18       0.000247729381
 19       0.000145358174
 20      -0.000337858710
 21      -0.000099393524
 22       0.000367137383
 23       0.000463797204
 24       0.000915337945
 25       0.000025423772
 26       0.000019939678
 27      -0.000170667018
 28      -0.000133005203
 29      -0.000036690029
 30      -0.000136286084
 31       0.000047552014
 32       0.044838215336
 33       0.095871718207
 34      -0.152691600315
 35      -0.149118448960
 36      -0.033053784157
 37      -0.033230279869
 38       0.055780674024
 39       0.114468533268
 40      -0.020025260432
 41       0.032784021358
 42       0.068774296480
 43      -0.006584191038
 44       0.004791687265
 45       0.012300981345
 46       0.002811409882
 47      -0.002815591535
 48       0.006695577300
 49       0.003792335927
 50       0.003085210840
 51       0.002505275743
 52      -0.002942862775
 53       0.006790705161
 54       0.003444813954
 55       0.002608126014
 56       0.001105363816
 57       0.000139126727
 58      -0.001331718380
 59      -0.001154536338
 60      -0.001185528163
 61      -0.001409694351
 62       0.000397155438
 63       0.057803935765
 64       0.122990589894
 65      -0.183599889275
 66      -0.216853484091
 67      -0.013057981701
 68      -0.009395571496
 69       0.030332316358
 70      -0.023245306604
 71      -0.008641988251
 72       0.027302573511
 73      -0.021039942178
 74      -0.000638915826
 75       0.004389823266
 76       0.001010844562
 77      -0.000977530049
 78      -0.000974017836
 79       0.003030552607
 80       0.001104067813
 81       0.000863186755
 82      -0.001403830393
 83      -0.002739147755
 84       0.007669365011
 85       0.002437449730
 86       0.001248390487
 87      -0.000509328096
 88      -0.000962746011
 89       0.002823691878
 90       0.002776626210
 91       0.001817798787
 92       0.001056448332
 93      -0.000884265269
 94       0.059711058604
 95       0.127040235448
 96      -0.189141321936
 97      -0.226596511152
 98      -0.014027005118
 99       0.012546786994
100      -0.034757180630
101       0.013197363113
102       0.011311506129
103      -0.033142602729
104       0.012304774530
105       0.003919005659
106       0.000335768280
107      -0.000183546384
108       0.001678946834
109      -0.000420908675
110       0.000915406335
111       0.002134128700
112       0.002068007493
113       0.005647772913
114      -0.001619629659
115       0.003158978781
116       0.005147664927
117       0.004366777137
118      -0.001816784874
119       0.000065592849
120       0.003237891370