[Molden Format]
[Title]
 Molden file created by orca_2mkl for BaseName=temp

[Atoms] AU
O    1   8          0.3337483120        17.6991069402         7.2210819742 
C    2   6          0.8201241346        17.7775116775         4.9965303844 
C    3   6          1.3491907603        20.2367351277         3.6632756846 
C    4   6          0.9275229400        15.4222722974         3.4005206040 
H    5   1          1.4572774260        21.7720072204         5.0271401683 
H    6   1          3.1040849346        20.1229509378         2.5777092789 
H    7   1         -0.1659576388        20.6286454306         2.3103980686 
H    8   1          0.3201630708        13.7950045571         4.5012104880 
H    9   1          2.8620507011        15.1201825674         2.7362591912 
H   10   1         -0.2550128726        15.6262474466         1.7181919133 
[GTO]
  1 0
s   6 1.0 
    27032.3800000000         0.8598581393
     4052.3870000000         1.6055304059
      922.3272000000         2.7458780898
      261.2407000000         4.2987677378
       85.3546400000         5.8797670930
       31.0350400000         6.3163984679
s   2 1.0 
       12.2608600000         2.9812145398
        4.9987080000         0.9419560379
s   1 1.0 
        1.1703110000         0.8019292557
s   1 1.0 
        0.4647474000         0.4011647998
s   1 1.0 
        0.1850454000         0.2010799703
p   4 1.0 
       63.2749500000         3.0572013698
       14.6270500000         3.3844845670
        4.4501220000         2.9474258212
        1.5275800000         1.7118271901
p   1 1.0 
        0.5293512000         0.6436058239
p   1 1.0 
        0.1747842000         0.1610897108
d   1 1.0 
        2.3140000000        12.3767310624
d   1 1.0 
        0.6450000000         1.3234257612
f   1 1.0 
        1.4280000000        12.7097950062

  2 0
s   6 1.0 
    13575.3500000000         0.5435905009
     2035.2330000000         1.0145543008
      463.2256000000         1.7315731015
      131.2002000000         2.6910371555
       42.8530200000         3.6044547316
       15.5841900000         3.7025565440
s   2 1.0 
        6.2067140000         1.8383540114
        2.5764900000         0.5447576606
s   1 1.0 
        0.5769634000         0.4718145074
s   1 1.0 
        0.2297283000         0.2364944571
s   1 1.0 
        0.0951644400         0.1221141848
p   4 1.0 
       34.6972300000         1.3596652360
        7.9582620000         1.4512590746
        2.3780830000         1.2709231872
        0.8143321000         0.8025721831
p   1 1.0 
        0.2888755000         0.3018759228
p   1 1.0 
        0.1005682000         0.0807264648
d   1 1.0 
        1.0970000000         3.3522135855
d   1 1.0 
        0.3180000000         0.3838994974
f   1 1.0 
        0.7610000000         3.0840084332

  3 0
s   6 1.0 
    13575.3500000000         0.5435905009
     2035.2330000000         1.0145543008
      463.2256000000         1.7315731015
      131.2002000000         2.6910371555
       42.8530200000         3.6044547316
       15.5841900000         3.7025565440
s   2 1.0 
        6.2067140000         1.8383540114
        2.5764900000         0.5447576606
s   1 1.0 
        0.5769634000         0.4718145074
s   1 1.0 
        0.2297283000         0.2364944571
s   1 1.0 
        0.0951644400         0.1221141848
p   4 1.0 
       34.6972300000         1.3596652360
        7.9582620000         1.4512590746
        2.3780830000         1.2709231872
        0.8143321000         0.8025721831
p   1 1.0 
        0.2888755000         0.3018759228
p   1 1.0 
        0.1005682000         0.0807264648
d   1 1.0 
        1.0970000000         3.3522135855
d   1 1.0 
        0.3180000000         0.3838994974
f   1 1.0 
        0.7610000000         3.0840084332

  4 0
s   6 1.0 
    13575.3500000000         0.5435905009
     2035.2330000000         1.0145543008
      463.2256000000         1.7315731015
      131.2002000000         2.6910371555
       42.8530200000         3.6044547316
       15.5841900000         3.7025565440
s   2 1.0 
        6.2067140000         1.8383540114
        2.5764900000         0.5447576606
s   1 1.0 
        0.5769634000         0.4718145074
s   1 1.0 
        0.2297283000         0.2364944571
s   1 1.0 
        0.0951644400         0.1221141848
p   4 1.0 
       34.6972300000         1.3596652360
        7.9582620000         1.4512590746
        2.3780830000         1.2709231872
        0.8143321000         0.8025721831
p   1 1.0 
        0.2888755000         0.3018759228
p   1 1.0 
        0.1005682000         0.0807264648
d   1 1.0 
        1.0970000000         3.3522135855
d   1 1.0 
        0.3180000000         0.3838994974
f   1 1.0 
        0.7610000000         3.0840084332

  5 0
s   3 1.0 
       34.0613400000         0.2556298765
        5.1235750000         0.4613598729
        1.1646630000         0.6811216893
s   1 1.0 
        0.3272304000         0.3083545241
s   1 1.0 
        0.1030724000         0.1296483171
p   1 1.0 
        0.8000000000         1.0784563492

  6 0
s   3 1.0 
       34.0613400000         0.2556298765
        5.1235750000         0.4613598729
        1.1646630000         0.6811216893
s   1 1.0 
        0.3272304000         0.3083545241
s   1 1.0 
        0.1030724000         0.1296483171
p   1 1.0 
        0.8000000000         1.0784563492

  7 0
s   3 1.0 
       34.0613400000         0.2556298765
        5.1235750000         0.4613598729
        1.1646630000         0.6811216893
s   1 1.0 
        0.3272304000         0.3083545241
s   1 1.0 
        0.1030724000         0.1296483171
p   1 1.0 
        0.8000000000         1.0784563492

  8 0
s   3 1.0 
       34.0613400000         0.2556298765
        5.1235750000         0.4613598729
        1.1646630000         0.6811216893
s   1 1.0 
        0.3272304000         0.3083545241
s   1 1.0 
        0.1030724000         0.1296483171
p   1 1.0 
        0.8000000000         1.0784563492

  9 0
s   3 1.0 
       34.0613400000         0.2556298765
        5.1235750000         0.4613598729
        1.1646630000         0.6811216893
s   1 1.0 
        0.3272304000         0.3083545241
s   1 1.0 
        0.1030724000         0.1296483171
p   1 1.0 
        0.8000000000         1.0784563492

 10 0
s   3 1.0 
       34.0613400000         0.2556298765
        5.1235750000         0.4613598729
        1.1646630000         0.6811216893
s   1 1.0 
        0.3272304000         0.3083545241
s   1 1.0 
        0.1030724000         0.1296483171
p   1 1.0 
        0.8000000000         1.0784563492

[5D]
[7F]
[9G]
[MO]
 Sym=     1a
 Ene= -1.92023266688807E+01
 Spin= Alpha
 Occup= 2.000000
  1      -0.435383810749
  2      -0.639606116689
  3      -0.034923802195
  4       0.028854853624
  5      -0.010099402755
  6      -0.000487680457
  7      -0.000050419141
  8       0.002061844896
  9       0.001368978497
 10       0.000196628952
 11      -0.006158751779
 12      -0.000114783206
 13      -0.000003884480
 14       0.000486330255
 15      -0.000299606160
 16       0.000099798567
 17       0.000023453421
 18      -0.000074107253
 19       0.000007032163
 20       0.001417915080
 21      -0.000527150497
 22      -0.000092579325
 23       0.000184759294
 24       0.000001411124
 25      -0.000156063413
 26       0.000091502073
 27       0.000012141770
 28      -0.000008683802
 29      -0.000007618058
 30       0.000000653375
 31      -0.000001283592
 32      -0.000043209524
 33       0.000259153743
 34      -0.000762368374
 35      -0.004348209496
 36       0.001402149068
 37       0.000139903616
 38       0.000023170740
 39      -0.000637631910
 40       0.001816373443
 41       0.000291041730
 42      -0.008354647812
 43      -0.001091661016
 44      -0.000213847662
 45       0.004976225570
 46      -0.000341790246
 47       0.000142038729
 48       0.000020845837
 49       0.000033586240
 50       0.000001891312
 51      -0.004435732439
 52       0.001523128586
 53       0.000343428951
 54      -0.001055864131
 55       0.000032257883
 56       0.000013738868
 57       0.000078124949
 58      -0.000025740236
 59       0.000228310362
 60      -0.000039221303
 61       0.000065551994
 62      -0.000000469856
 63      -0.000017525489
 64       0.000084267494
 65      -0.000350920823
 66      -0.001166162162
 67       0.001919814243
 68       0.000012936513
 69       0.000124279525
 70      -0.000151574673
 71       0.000434109825
 72       0.000912457063
 73       0.000043757825
 74       0.000074183675
 75      -0.000720609546
 76      -0.000493889698
 77      -0.000038904516
 78       0.000042196172
 79       0.000043002784
 80       0.000083342008
 81      -0.000020261767
 82       0.000251740595
 83      -0.000163917893
 84       0.001044990699
 85      -0.000734132212
 86      -0.000007027879
 87       0.000082013782
 88      -0.000016538261
 89       0.000067480523
 90       0.000090655074
 91      -0.000008086418
 92      -0.000012540513
 93      -0.000062296048
 94      -0.000017691317
 95       0.000085088916
 96      -0.000352316537
 97      -0.001182741114
 98       0.001816408748
 99       0.000049386355
100      -0.000112056057
101      -0.000154580858
102      -0.000360463274
103      -0.000937443534
104      -0.000172737271
105       0.000134518125
106       0.000723419341
107      -0.000430815600
108      -0.000050226416
109       0.000030527481
110      -0.000048748407
111       0.000082139779
112      -0.000000708594
113       0.000073742355
114      -0.000299480787
115      -0.000930193710
116      -0.000775839293
117       0.000421533105
118       0.000067920130
119      -0.000016869365
120      -0.000090513338
121       0.000059793722
122       0.000011123847
123       0.000050243896
124       0.000070006171
125      -0.000128121864
126      -0.001063278727
127       0.000162779044
128       0.000053102517
129       0.000185373256
130       0.000080216854
131       0.000000562287
132       0.000497351791
133      -0.000363145931
134      -0.000017926697
135       0.000009019526
136       0.000189867696
137       0.000060276782
138       0.000884731318
139      -0.000414071304
140       0.000049612460
141      -0.000047617786
142       0.000201696773
143      -0.000130025107
144      -0.001078668459
145       0.000165381194
146      -0.000072394842
147      -0.000194423987
148       0.000041460618
149       0.000055720024
150       0.000874039482
151      -0.000403556057
152      -0.000124304477
153       0.000030340262
154       0.000172848644
155       0.000004644652
156       0.000546853488
157      -0.000354533108
158      -0.000053472439
159      -0.000019051025
160       0.000187066837
 Sym=     1a
 Ene= -1.03232975558005E+01
 Spin= Alpha
 Occup= 2.000000
  1       0.000084853441
  2       0.000355589745
  3      -0.003605970057
  4       0.014861029229
  5      -0.000132750232
  6      -0.000144196159
  7      -0.000023064584
  8       0.000660551621
  9       0.001839212738
 10       0.000295760378
 11      -0.008414503568
 12       0.000034978040
 13       0.000006222542
 14      -0.000167640436
 15      -0.000028645365
 16      -0.000021091181
 17       0.000012923054
 18      -0.000145110793
 19       0.000028437633
 20       0.002944108834
 21      -0.001009766879
 22      -0.000229243482
 23       0.000704560713
 24      -0.000074520734
 25      -0.000518603298
 26       0.000254646838
 27       0.000060220616
 28      -0.000149975664
 29       0.000002749307
 30      -0.000033444342
 31      -0.000001316035
 32      -0.467187065652
 33      -0.608423820534
 34      -0.038260832688
 35       0.023586863892
 36      -0.017950952301
 37       0.000237187491
 38       0.000025667902
 39      -0.000922259499
 40       0.003139929643
 41       0.000520672662
 42      -0.014515535928
 43      -0.001343163220
 44      -0.000202519557
 45       0.006140954037
 46      -0.001724799586
 47       0.000842766648
 48       0.000052465455
 49       0.000708257970
 50      -0.000161567499
 51      -0.006439679938
 52       0.001621366506
 53       0.000695624913
 54      -0.004262817832
 55       0.000640450506
 56      -0.001527296053
 57       0.000916099280
 58       0.000128578532
 59      -0.000039478438
 60      -0.000065648470
 61       0.000017477971
 62      -0.000006122343
 63      -0.000613686550
 64      -0.000905833557
 65       0.000913219231
 66      -0.008462481943
 67       0.007730197219
 68      -0.000008787051
 69       0.000072287034
 70       0.000070844910
 71       0.001062979168
 72       0.003550997278
 73      -0.003189562078
 74      -0.000120666494
 75      -0.002539855263
 76       0.000961373057
 77       0.000014126202
 78      -0.000011775362
 79      -0.000106927267
 80      -0.000032777249
 81       0.000032959960
 82      -0.000578300524
 83       0.000210253437
 84       0.000911434005
 85      -0.000241227737
 86      -0.000163040845
 87      -0.000499808036
 88       0.000063432489
 89      -0.000004009397
 90      -0.000399929411
 91       0.000160367255
 92      -0.000260327796
 93      -0.000379915418
 94      -0.000608446887
 95      -0.000899291006
 96       0.000916609690
 97      -0.008463976886
 98       0.007760961832
 99      -0.000021816038
100      -0.000076506307
101       0.000062799274
102       0.000425544866
103      -0.003311796777
104      -0.003568261856
105      -0.000270922114
106       0.002452969435
107       0.001135574062
108       0.000026934970
109      -0.000015294217
110       0.000109430285
111      -0.000025570878
112      -0.000015184032
113      -0.000708405175
114       0.000169852334
115      -0.000794765683
116      -0.000284213098
117       0.000222198198
118      -0.000433335818
119       0.000129757458
120       0.000170024696
121      -0.000522769345
122      -0.000097887595
123       0.000010380839
124       0.000365657199
125      -0.000006625452
126       0.000237814591
127      -0.000419882284
128      -0.000050715601
129      -0.000239203420
130       0.000271557444
131      -0.000023769202
132       0.000463906784
133      -0.000124171484
134       0.000020066652
135      -0.000218354098
136       0.000119832784
137       0.000035559887
138       0.000510512374
139       0.000382960607
140      -0.000094119587
141      -0.000210119130
142       0.000110311899
143      -0.000005847201
144       0.000234981585
145      -0.000431467973
146      -0.000065231121
147       0.000218394792
148       0.000285445074
149       0.000029959596
150       0.000500587401
151       0.000340221233
152       0.000039508236
153       0.000198961493
154       0.000152161226
155      -0.000018046584
156       0.000478326695
157      -0.000077543048
158      -0.000069754913
159       0.000210940561
160       0.000119315876
 Sym=     1a
 Ene= -1.02250639904729E+01
 Spin= Alpha
 Occup= 2.000000
  1       0.000004633961
  2      -0.000053981138
  3       0.000615815866
  4      -0.002598897614
  5       0.000710631816
  6       0.000036984980
  7       0.000140741883
  8      -0.000069823066
  9      -0.000293540675
 10      -0.000982194041
 11       0.000753217044
 12       0.000030304288
 13       0.000481447778
 14       0.000400229935
 15       0.000010399787
 16      -0.000003005557
 17      -0.000047039843
 18       0.000016950513
 19       0.000004315775
 20      -0.000023724888
 21       0.000033822187
 22       0.000347297046
 23      -0.000011232767
 24      -0.000065650620
 25      -0.000047576366
 26       0.000014845928
 27       0.000015058744
 28      -0.000047347143
 29      -0.000005635105
 30      -0.000001400343
 31       0.000026503189
 32      -0.000680289062
 33      -0.000795228286
 34       0.000016301808
 35       0.002603862492
 36      -0.009347294899
 37       0.000068574814
 38       0.000534770572
 39      -0.000105884933
 40      -0.000678247506
 41      -0.004760091815
 42       0.000979504134
 43      -0.000554162075
 44      -0.006347485092
 45      -0.000000200232
 46      -0.000058461063
 47       0.000057584322
 48       0.000058078912
 49       0.000130805220
 50      -0.000043044639
 51       0.002077991397
 52      -0.000135095480
 53       0.003722510190
 54       0.001067203749
 55      -0.000982964158
 56      -0.000310053221
 57      -0.000070148437
 58      -0.000034727582
 59      -0.000552938330
 60       0.000279986757
 61      -0.000345509775
 62      -0.000537234120
 63       0.467073210964
 64       0.608670651240
 65       0.034391032015
 66      -0.013981514588
 67       0.032525646728
 68      -0.000026277157
 69      -0.000366357383
 70       0.000027729692
 71      -0.000269975492
 72      -0.000557991007
 73       0.000459720315
 74      -0.000937939864
 75      -0.003489429790
 76       0.000592453525
 77       0.000058870867
 78      -0.000040648345
 79       0.000018859690
 80      -0.000056657603
 81       0.000025895402
 82      -0.000063854912
 83       0.000063981640
 84      -0.000345459337
 85       0.000437216540
 86      -0.000051497864
 87       0.000102034602
 88      -0.000164049051
 89       0.000359019697
 90      -0.001612705323
 91       0.000455193896
 92      -0.000178838589
 93       0.000069018959
 94      -0.002656551539
 95      -0.003453912844
 96       0.000298698775
 97      -0.003546730272
 98      -0.004094658345
 99       0.000001719701
100       0.000116205496
101      -0.000020862854
102      -0.000222638344
103      -0.003354015224
104      -0.000653960001
105      -0.000747972754
106      -0.002271982699
107       0.000303187462
108      -0.000021869340
109       0.000024130951
110      -0.000026357527
111       0.000054884257
112      -0.000022776129
113       0.000822889032
114      -0.000285308499
115      -0.000878042776
116       0.000662939075
117       0.000200380307
118       0.000034819115
119       0.000018513342
120       0.000069924274
121       0.000081714240
122       0.000015160095
123       0.000000160433
124      -0.000103561348
125      -0.000454216985
126      -0.001840272249
127      -0.003768579499
128       0.000086296593
129       0.001390631322
130       0.001284853176
131      -0.000433898983
132      -0.002592833275
133      -0.004962597216
134       0.001654560214
135      -0.000066205607
136      -0.001101354955
137      -0.000431289733
138      -0.002747273972
139      -0.005328454382
140      -0.001400253548
141       0.000427805447
142      -0.001339989908
143      -0.000069549037
144      -0.000843563834
145      -0.001020011730
146      -0.000025244764
147      -0.000175010914
148       0.000011152939
149       0.000032547247
150       0.000402286012
151       0.000797380546
152      -0.000024390096
153       0.000026884284
154       0.000085017422
155       0.000030318566
156       0.000266101899
157       0.000170791573
158      -0.000067791859
159       0.000004040252
160       0.000082410351
 Sym=     1a
 Ene= -1.02241910764275E+01
 Spin= Alpha
 Occup= 2.000000
  1       0.000004720423
  2      -0.000055067353
  3       0.000626755620
  4      -0.002631590676
  5       0.000741723253
  6      -0.000000607357
  7      -0.000135147917
  8      -0.000088592771
  9      -0.000070207768
 10       0.000922716298
 11       0.000875114912
 12      -0.000163985374
 13      -0.000513182477
 14       0.000320423504
 15       0.000017461938
 16       0.000000558039
 17       0.000041251036
 18       0.000018968059
 19      -0.000015218035
 20      -0.000081191365
 21      -0.000002778585
 22      -0.000332693285
 23      -0.000023660622
 24       0.000085143875
 25      -0.000052117032
 26       0.000012327665
 27       0.000002412189
 28      -0.000039724358
 29       0.000013749745
 30      -0.000021585472
 31      -0.000027206284
 32      -0.000682882518
 33      -0.000796989751
 34      -0.000008112979
 35       0.002761201731
 36      -0.009494728977
 37      -0.000010525378
 38      -0.000520647588
 39      -0.000160938861
 40       0.000141231751
 41       0.004609549150
 42       0.001449316818
 43       0.000374633962
 44       0.006289574258
 45       0.000657816844
 46      -0.000070206882
 47       0.000050315078
 48      -0.000068164694
 49       0.000130471567
 50      -0.000012757178
 51       0.001334240250
 52      -0.000772293656
 53      -0.004029748268
 54       0.000925399304
 55       0.000718546209
 56      -0.000268677180
 57      -0.000065371294
 58       0.000223812898
 59      -0.000689943931
 60      -0.000092889327
 61      -0.000006286120
 62       0.000531870262
 63       0.002656062506
 64       0.003469248939
 65       0.000701885144
 66      -0.003773798667
 67      -0.003746769517
 68       0.000004174882
 69      -0.000119970320
 70      -0.000026202534
 71       0.000476812092
 72       0.003410483010
 73      -0.000296402656
 74       0.000561720539
 75       0.002192032711
 76       0.000743809161
 77      -0.000021435596
 78       0.000015526036
 79       0.000015832934
 80       0.000058062568
 81      -0.000029547491
 82       0.000992102810
 83      -0.000124072229
 84       0.000726525955
 85       0.000701308252
 86      -0.000163012400
 87       0.000019362043
 88       0.000007809487
 89      -0.000070950978
 90       0.000041289200
 91       0.000014027410
 92       0.000035359266
 93       0.000118051697
 94       0.467072918993
 95       0.608668291386
 96       0.034421302317
 97      -0.014090840730
 98       0.032549651569
 99       0.000034100362
100       0.000354839818
101       0.000117679304
102       0.000012194418
103       0.000460076952
104       0.000466259385
105       0.000518891422
106       0.003433472968
107       0.001158148957
108       0.000057611288
109      -0.000036783905
110      -0.000012075170
111      -0.000058800469
112       0.000029861743
113       0.000015396567
114       0.000149524924
115       0.000238876849
116       0.000468928659
117      -0.000192942833
118      -0.000260800145
119      -0.000756750617
120       0.000148768703
121      -0.001284769471
122       0.000526126418
123      -0.000642628719
124       0.000046623823
125      -0.000073833281
126      -0.000851323609
127      -0.001064841581
128       0.000021234064
129       0.000186156443
130       0.000046100158
131       0.000021614118
132       0.000198114789
133       0.000120487996
134       0.000054572438
135      -0.000010450952
136       0.000086529631
137       0.000028976237
138       0.000400594887
139       0.000737525090
140      -0.000021446853
141      -0.000034097092
142       0.000071551816
143      -0.000455206942
144      -0.001831744428
145      -0.003783085290
146      -0.000562391856
147      -0.001479404787
148       0.001050825900
149      -0.000433250754
150      -0.002748703347
151      -0.005322597419
152       0.001832116210
153      -0.000337194747
154      -0.000701674819
155      -0.000434957358
156      -0.002630827070
157      -0.004969157323
158      -0.001081324194
159       0.000154097881
160      -0.001656943999
 Sym=     1a
 Ene= -1.08619414441550E+00
 Spin= Alpha
 Occup= 2.000000
  1       0.088733206428
  2       0.209075578934
  3      -0.300362920824
  4      -0.394390832713
  5      -0.121294867670
  6      -0.026377544910
  7      -0.003366655241
  8       0.113700618236
  9      -0.020861310523
 10      -0.002291256861
 11       0.086445805871
 12      -0.005338321835
 13       0.000547902539
 14       0.004689393483
 15      -0.006299588880
 16       0.002457504569
 17       0.000400316767
 18      -0.000811178601
 19       0.000031269829
 20      -0.014536419171
 21       0.003777091504
 22       0.001327482995
 23      -0.003489556822
 24       0.000503991914
 25       0.002566059194
 26      -0.001494530723
 27      -0.000248890288
 28       0.000471392827
 29       0.000080746942
 30       0.000123059290
 31      -0.000027078091
 32       0.057415376071
 33       0.120929111409
 34      -0.186294929726
 35      -0.155301611489
 36      -0.023284401592
 37       0.028547660660
 38       0.004823674707
 39      -0.132004740577
 40       0.008032287715
 41       0.001696058041
 42      -0.036580465401
 43       0.002007505968
 44       0.001774006912
 45       0.001689158409
 46      -0.018451272775
 47       0.007157478596
 48       0.001114268595
 49       0.000374680866
 50      -0.000420140153
 51      -0.004578143498
 52       0.004241888839
 53      -0.000355683049
 54       0.007490398604
 55      -0.001633186188
 56      -0.007550546351
 57       0.003151304181
 58       0.001066926667
 59      -0.003500088090
 60       0.000285124135
 61      -0.000858369837
 62      -0.000020580088
 63       0.008539766560
 64       0.017704254823
 65      -0.027136443072
 66      -0.013256117992
 67       0.007745640956
 68       0.003619509024
 69       0.011657191531
 70      -0.011594902684
 71       0.000772628637
 72      -0.000272411738
 73      -0.003648731823
 74      -0.001291982972
 75      -0.001506959206
 76       0.000495682623
 77      -0.000592113383
 78       0.000387473694
 79       0.001061698965
 80       0.000234065556
 81      -0.000325790624
 82      -0.001515157766
 83       0.000266940548
 84      -0.000215915952
 85      -0.001090954506
 86       0.000305508858
 87      -0.000590487946
 88       0.000343303670
 89       0.000584876025
 90       0.000086232212
 91      -0.000322352996
 92       0.000072186439
 93      -0.000016399732
 94       0.008576878725
 95       0.017778239850
 96      -0.027253058810
 97      -0.013220469320
 98       0.012302798744
 99       0.001649950979
100      -0.010813026780
101      -0.012939547988
102       0.000800276945
103       0.000800141019
104      -0.003327064147
105      -0.000296577534
106       0.001918746881
107       0.001881370731
108      -0.000814542343
109       0.000276118338
110      -0.001015384589
111       0.000215507904
112       0.000156415519
113      -0.001264261732
114       0.000282192080
115       0.000623277158
116      -0.001298189124
117       0.000219377324
118      -0.000695455247
119       0.000406059808
120      -0.000538070344
121       0.000002196775
122       0.000096814365
123       0.000063956862
124      -0.000050480739
125      -0.005106868082
126      -0.005040392683
127      -0.001571984417
128       0.000206078319
129       0.001198115009
130       0.000297812318
131      -0.002869174947
132      -0.003106103005
133      -0.000938618564
134       0.000470010942
135       0.000356844279
136      -0.000605638742
137      -0.003108828738
138      -0.003613580663
139      -0.001236677478
140      -0.000214451039
141       0.000593608896
142      -0.000740283713
143      -0.005190713857
144      -0.005273121799
145      -0.002368743048
146      -0.000269183317
147      -0.001243751770
148       0.000103343229
149      -0.003098292420
150      -0.003418435479
151      -0.001785339624
152       0.000466327981
153      -0.000589802313
154      -0.000639909768
155      -0.002849054953
156      -0.003150779420
157      -0.001019968866
158      -0.000224914134
159      -0.000289061725
160      -0.000717253771
 Sym=     1a
 Ene= -7.97688510874517E-01
 Spin= Alpha
 Occup= 2.000000
  1       0.030378163811
  2       0.072288449396
  3      -0.109435503406
  4      -0.140602543164
  5      -0.069573951160
  6      -0.000263920530
  7       0.000536728394
  8      -0.004716770796
  9       0.000121748142
 10       0.000672900072
 11      -0.005951887377
 12      -0.001550390661
 13       0.002006057882
 14      -0.007862261477
 15      -0.000479369448
 16       0.000179056415
 17       0.000065885098
 18      -0.000392657154
 19       0.000062123956
 20      -0.000514458788
 21      -0.000847307797
 22       0.000112204150
 23      -0.001139368426
 24       0.000327459065
 25       0.000079789629
 26      -0.000081826268
 27      -0.000007788127
 28       0.000189246529
 29      -0.000007787519
 30       0.000072169374
 31      -0.000017929203
 32      -0.043912187534
 33      -0.093887649729
 34       0.148975892455
 35       0.148769418704
 36       0.033980735639
 37       0.027790267672
 38       0.004580175945
 39      -0.128804487895
 40       0.017350008564
 41       0.005129773566
 42      -0.077236818798
 43       0.004890185965
 44      -0.003920138915
 45      -0.014210711398
 46      -0.006019608152
 47       0.000705490887
 48       0.000894572529
 49      -0.006727716076
 50       0.001147371366
 51      -0.005721812220
 52       0.000987311769
 53      -0.000612521319
 54      -0.007037578586
 55       0.001368266223
 56       0.000163884032
 57       0.000839833463
 58      -0.000309726607
 59       0.002593722832
 60      -0.000503272067
 61       0.000730291100
 62       0.000053711237
 63      -0.059168605140
 64      -0.125915269443
 65       0.188693968007
 66       0.219455426214
 67       0.017168618783
 68      -0.004371508081
 69      -0.037904882404
 70       0.002364989125
 71      -0.003927410783
 72      -0.033191769050
 73       0.001465532801
 74       0.001035876191
 75      -0.001307906371
 76      -0.001790086884
 77      -0.001517562621
 78      -0.000332429160
 79      -0.001546089705
 80      -0.002590646154
 81       0.000813310214
 82      -0.004843329125
 83       0.000468540471
 84      -0.002540751221
 85      -0.006040111241
 86       0.001899993017
 87      -0.000704875967
 88      -0.000068327305
 89       0.001656132879
 90      -0.003873555630
 91       0.001075026148
 92      -0.000944516315
 93      -0.001113897568
 94      -0.058805203084
 95      -0.125116355076
 96       0.186579415950
 97       0.223124462821
 98       0.005204419544
 99       0.002817614525
100       0.037388162997
101       0.007318419986
102       0.002842917876
103       0.036076687000
104       0.006896017643
105      -0.001782229905
106       0.000955942080
107      -0.002452129269
108      -0.001025532288
109       0.000070323629
110       0.002060794710
111      -0.002695408160
112       0.000091608428
113      -0.005014502508
114       0.001269024340
115       0.005616747649
116      -0.005607637048
117      -0.000013935023
118      -0.001535307481
119      -0.001289351914
120      -0.000288093845