
                                 *****************
                                 * O   R   C   A *
                                 *****************

           --- An Ab Initio, DFT and Semiempirical electronic structure package ---

                  #######################################################
                  #                        -***-                        #
                  #          Department of theory and spectroscopy      #
                  #               Directorship: Frank Neese             #
                  #        Max Planck Institute fuer Kohlenforschung    #
                  #                Kaiser Wilhelm Platz 1               #
                  #                 D-45470 Muelheim/Ruhr               #
                  #                      Germany                        #
                  #                                                     #
                  #                  All rights reserved                #
                  #                        -***-                        #
                  #######################################################


                         Program Version 4.2.1 -  RELEASE  -


 With contributions from (in alphabetic order):
   Daniel Aravena         : Magnetic Suceptibility
   Michael Atanasov       : Ab Initio Ligand Field Theory (pilot matlab implementation)
   Alexander A. Auer      : GIAO ZORA, VPT2
   Ute Becker             : Parallelization
   Giovanni Bistoni       : ED, misc. LED, open-shell LED, HFLD
   Martin Brehm           : Molecular dynamics
   Dmytro Bykov           : SCF Hessian
   Vijay G. Chilkuri      : MRCI spin determinant printing, contributions to CSF-ICE
   Dipayan Datta          : RHF DLPNO-CCSD density
   Achintya Kumar Dutta   : EOM-CC, STEOM-CC
   Dmitry Ganyushin       : Spin-Orbit,Spin-Spin,Magnetic field MRCI
   Miquel Garcia          : C-PCM Hessian, Gaussian charge scheme
   Yang Guo               : DLPNO-NEVPT2, CIM, IAO-localization
   Andreas Hansen         : Spin unrestricted coupled pair/coupled cluster methods
   Benjamin Helmich-Paris : CASSCF linear response (MC-RPA)
   Lee Huntington         : MR-EOM, pCC
   Robert Izsak           : Overlap fitted RIJCOSX, COSX-SCS-MP3, EOM
   Christian Kollmar      : KDIIS, OOCD, Brueckner-CCSD(T), CCSD density
   Simone Kossmann        : Meta GGA functionals, TD-DFT gradient, OOMP2, MP2 Hessian
   Martin Krupicka        : AUTO-CI
   Lucas Lang             : DCDCAS
   Dagmar Lenk            : GEPOL surface, SMD
   Dimitrios Liakos       : Extrapolation schemes; Compound Job, initial MDCI parallelization
   Dimitrios Manganas     : Further ROCIS development; embedding schemes
   Dimitrios Pantazis     : SARC Basis sets
   Taras Petrenko         : DFT Hessian,TD-DFT gradient, ASA, ECA, R-Raman, ABS, FL, XAS/XES, NRVS
   Peter Pinski           : DLPNO-MP2, DLPNO-MP2 Gradient
   Christoph Reimann      : Effective Core Potentials
   Marius Retegan         : Local ZFS, SOC
   Christoph Riplinger    : Optimizer, TS searches, QM/MM, DLPNO-CCSD(T), (RO)-DLPNO pert. Triples
   Tobias Risthaus        : Range-separated hybrids, TD-DFT gradient, RPA, STAB
   Michael Roemelt        : Original ROCIS implementation
   Masaaki Saitow         : Open-shell DLPNO-CCSD energy and density
   Barbara Sandhoefer     : DKH picture change effects
   Avijit Sen             : IP-ROCIS
   Kantharuban Sivalingam : CASSCF convergence, NEVPT2, FIC-MRCI
   Bernardo de Souza      : ESD, SOC TD-DFT
   Georgi Stoychev        : AutoAux, RI-MP2 NMR
   Willem Van den Heuvel  : Paramagnetic NMR
   Boris Wezisla          : Elementary symmetry handling
   Frank Wennmohs         : Technical directorship


 We gratefully acknowledge several colleagues who have allowed us to
 interface, adapt or use parts of their codes:
   Stefan Grimme, W. Hujo, H. Kruse,             : VdW corrections, initial TS optimization,
                  C. Bannwarth                     DFT functionals, gCP, sTDA/sTD-DF
   Ed Valeev, F. Pavosevic, A. Kumar             : LibInt (2-el integral package), F12 methods
   Garnet Chan, S. Sharma, J. Yang, R. Olivares  : DMRG
   Ulf Ekstrom                                   : XCFun DFT Library
   Mihaly Kallay                                 : mrcc  (arbitrary order and MRCC methods)
   Andreas Klamt, Michael Diedenhofen            : otool_cosmo (COSMO solvation model)
   Jiri Pittner, Ondrej Demel                    : Mk-CCSD
   Frank Weinhold                                : gennbo (NPA and NBO analysis)
   Christopher J. Cramer and Donald G. Truhlar   : smd solvation model
   Lars Goerigk                                  : TD-DFT with DH, B97 family of functionals
   V. Asgeirsson, H. Jonsson                     : NEB implementation
   FAccTs GmbH                                   : IRC, NEB, NEB-TS, Multilevel, MM, QM/MM, CI optimization
   S Lehtola, MJT Oliveira, MAL Marques          : LibXC Library


 Your calculation uses the libint2 library for the computation of 2-el integrals
 For citations please refer to: http://libint.valeyev.net

 Your ORCA version has been built with support for libXC version: 4.2.3
 For citations please refer to: https://tddft.org/programs/libxc/

 This ORCA versions uses:
   CBLAS   interface :  Fast vector & matrix operations
   LAPACKE interface :  Fast linear algebra routines
   SCALAPACK package :  Parallel linear algebra routines



Reading of a custom basis requested
Basis file         : system.bas
READING GTO-BASIS: OXYGEN
READING GTO-BASIS: CARBON
READING GTO-BASIS: HYDROGEN
Basis successfully read

Reading of a custom AuxJ basis requested
Basis file: system.aux
READING GTO-BASIS: OXYGEN
READING GTO-BASIS: CARBON
READING GTO-BASIS: HYDROGEN
Basis read successfully!

----- Orbital basis set information -----
----- AuxJ basis set information -----
================================================================================
                                        WARNINGS
                       Please study these warnings very carefully!
================================================================================


INFO   : the flag for use of LIBINT has been found!

================================================================================
                                       INPUT FILE
================================================================================
NAME = temp.inp
|  1> * xyz  0 1
|  2>   O    0.176612    9.365964    3.821232
|  3>   C    0.433991    9.407454    2.644050
|  4>   C    0.713961   10.708819    1.938522
|  5>   C    0.490824    8.161115    1.799478
|  6>   H    0.771158   11.521250    2.660248
|  7>   H    1.642611   10.648607    1.364065
|  8>   H   -0.087821   10.916209    1.222610
|  9>   H    0.169423    7.300002    2.381938
| 10>   H    1.514532    8.001256    1.447966
| 11>   H   -0.134947    8.269054    0.909228
| 12> * 
| 13> 
| 14> %pal
| 15> nprocs 26
| 16> end
| 17> 
| 18> %basis
| 19> GTOName ="system.bas";
| 20> GTOAuxName ="system.aux";
| 21> end
| 22>  
| 23> 
| 24> %pointcharges "background.crg"
| 25> ! DFT PBE0 TightSCF  
| 26> 
| 27> 
| 28>                          ****END OF INPUT****
================================================================================

                       ****************************
                       * Single Point Calculation *
                       ****************************

---------------------------------
CARTESIAN COORDINATES (ANGSTROEM)
---------------------------------
  O      0.176612    9.365964    3.821232
  C      0.433991    9.407454    2.644050
  C      0.713961   10.708819    1.938522
  C      0.490824    8.161115    1.799478
  H      0.771158   11.521250    2.660248
  H      1.642611   10.648607    1.364065
  H     -0.087821   10.916209    1.222610
  H      0.169423    7.300002    2.381938
  H      1.514532    8.001256    1.447966
  H     -0.134947    8.269054    0.909228

----------------------------
CARTESIAN COORDINATES (A.U.)
----------------------------
  NO LB      ZA    FRAG     MASS         X           Y           Z
   0 O     8.0000    0    15.999    0.333748   17.699107    7.221082
   1 C     6.0000    0    12.011    0.820124   17.777512    4.996530
   2 C     6.0000    0    12.011    1.349191   20.236735    3.663276
   3 C     6.0000    0    12.011    0.927523   15.422272    3.400521
   4 H     1.0000    0     1.008    1.457277   21.772007    5.027140
   5 H     1.0000    0     1.008    3.104085   20.122951    2.577709
   6 H     1.0000    0     1.008   -0.165958   20.628645    2.310398
   7 H     1.0000    0     1.008    0.320163   13.795005    4.501210
   8 H     1.0000    0     1.008    2.862051   15.120183    2.736259
   9 H     1.0000    0     1.008   -0.255013   15.626247    1.718192

--------------------------------
INTERNAL COORDINATES (ANGSTROEM)
--------------------------------
 O      0   0   0     0.000000000000     0.00000000     0.00000000
 C      1   0   0     1.205704288317     0.00000000     0.00000000
 C      2   1   0     1.506553624306   121.77750213     0.00000000
 C      2   1   3     1.506616326738   121.79625087   180.09358965
 H      3   2   1     1.088211397499   110.12502257     7.24845780
 H      3   2   1     1.093625691127   110.86904260   129.44076064
 H      3   2   1     1.094712281546   109.49935866   247.01701694
 H      4   2   1     1.088151576376   110.08653485     6.00341550
 H      4   2   1     1.094117752022   109.64917033   245.55768824
 H      4   2   1     1.093519654447   110.67889383   128.04340545

---------------------------
INTERNAL COORDINATES (A.U.)
---------------------------
 O      0   0   0     0.000000000000     0.00000000     0.00000000
 C      1   0   0     2.278450903413     0.00000000     0.00000000
 C      2   1   0     2.846973756004   121.77750213     0.00000000
 C      2   1   3     2.847092246430   121.79625087   180.09358965
 H      3   2   1     2.056421517084   110.12502257     7.24845780
 H      3   2   1     2.066653049250   110.86904260   129.44076064
 H      3   2   1     2.068706407562   109.49935866   247.01701694
 H      4   2   1     2.056308471546   110.08653485     6.00341550
 H      4   2   1     2.067582909583   109.64917033   245.55768824
 H      4   2   1     2.066452668965   110.67889383   128.04340545

---------------------
BASIS SET INFORMATION
---------------------
There are 3 groups of distinct atoms

 Group   1 Type O   : 11s6p2d1f contracted to 5s3p2d1f pattern {62111/411/11/1}
 Group   2 Type C   : 11s6p2d1f contracted to 5s3p2d1f pattern {62111/411/11/1}
 Group   3 Type H   : 5s1p contracted to 3s1p pattern {311/1}

Atom   0O    basis set group =>   1
Atom   1C    basis set group =>   2
Atom   2C    basis set group =>   2
Atom   3C    basis set group =>   2
Atom   4H    basis set group =>   3
Atom   5H    basis set group =>   3
Atom   6H    basis set group =>   3
Atom   7H    basis set group =>   3
Atom   8H    basis set group =>   3
Atom   9H    basis set group =>   3
---------------------------------
AUXILIARY/J BASIS SET INFORMATION
---------------------------------
There are 3 groups of distinct atoms

 Group   1 Type O   : 8s6p5d3f1g contracted to 8s6p4d3f1g pattern {11111111/111111/2111/111/1}
 Group   2 Type C   : 8s6p5d3f1g contracted to 8s6p4d3f1g pattern {11111111/111111/2111/111/1}
 Group   3 Type H   : 4s3p2d contracted to 4s2p1d pattern {1111/21/2}

Atom   0O    basis set group =>   1
Atom   1C    basis set group =>   2
Atom   2C    basis set group =>   2
Atom   3C    basis set group =>   2
Atom   4H    basis set group =>   3
Atom   5H    basis set group =>   3
Atom   6H    basis set group =>   3
Atom   7H    basis set group =>   3
Atom   8H    basis set group =>   3
Atom   9H    basis set group =>   3

Checking for AutoStart:
The File: temp.gbw exists
Trying to determine its content:
     ... Fine, the file contains calculation information
     ... Fine, the calculation information was read
     ... Fine, the file contains a basis set
     ... Fine, the basis set was read
     ... Fine, the file contains a geometry
     ... Fine, the geometry was read
     ... Fine, the file contains a set of orbitals
     ... Fine, the orbitals can be read
     => possible old guess file was deleted
     => GBW file was renamed to GES file
     => GES file is set as startup file
     => Guess is set to MORead
     ... now leaving AutoStart



           ************************************************************
           *        Program running with 26 parallel MPI-processes    *
           *              working on a common directory               *
           ************************************************************
------------------------------------------------------------------------------
                           ORCA GTO INTEGRAL CALCULATION
------------------------------------------------------------------------------

                         BASIS SET STATISTICS AND STARTUP INFO

 # of primitive gaussian shells          ...  116
 # of primitive gaussian functions       ...  232
 # of contracted shells                  ...   68
 # of contracted basis functions         ...  160
 Highest angular momentum                ...    3
 Maximum contraction depth               ...    6
 Integral package used                   ... LIBINT
 Integral threshhold            Thresh   ...  2.500e-11
 Primitive cut-off              TCut     ...  2.500e-12


------------------------------ INTEGRAL EVALUATION ----------------------------


 * One electron integrals 
 Pre-screening matrix                    ... done
 Shell pair data                         ... done (   0.001 sec)

ENUC WAS=  0.000000000


           ************************************************************
           *        Program running with 26 parallel MPI-processes    *
           *              working on a common directory               *
           ************************************************************
------------------------------------------------------------------------------
                            ORCA POINT-CHARGE CORRECTION
------------------------------------------------------------------------------

BaseName                           ... temp
Point charge file                  ... background.crg

Reading the GBW file               ... done
Reading the one-electron matrix    ... done
Reading the point charges          ... done
Number of point charges            ... 891
Reading the nuclear-repulsion      ... done
Charge-Nuclei interaction          ... done
The nuclear repulsion file was updated
Doing the point charge correction  ... done
Storing the one-electron matrix    ... done

ENUC IS = 120.055796472


           ************************************************************
           *        Program running with 26 parallel MPI-processes    *
           *              working on a common directory               *
           ************************************************************
-------------------------------------------------------------------------------
                                 ORCA SCF
-------------------------------------------------------------------------------

------------
SCF SETTINGS
------------
Hamiltonian:
 Density Functional     Method          .... DFT(GTOs)
 Exchange Functional    Exchange        .... PBE
   PBE kappa parameter   XKappa         ....  0.804000
   PBE mue parameter    XMuePBE         ....  0.219520
 Correlation Functional Correlation     .... PBE
   PBE beta parameter  CBetaPBE         ....  0.066725
 LDA part of GGA corr.  LDAOpt          .... PW91-LDA
 Gradients option       PostSCFGGA      .... off
 Hybrid DFT is turned on
   Fraction HF Exchange ScalHFX         ....  0.250000
   Scaling of DF-GGA-X  ScalDFX         ....  0.750000
   Scaling of DF-GGA-C  ScalDFC         ....  1.000000
   Scaling of DF-LDA-C  ScalLDAC        ....  1.000000
   Perturbative correction              ....  0.000000
   Density functional embedding theory  .... OFF
   NL short-range parameter             ....  6.900000


General Settings:
 Integral files         IntName         .... temp
 Hartree-Fock type      HFTyp           .... RHF
 Total Charge           Charge          ....    0
 Multiplicity           Mult            ....    1
 Number of Electrons    NEL             ....   32
 Basis Dimension        Dim             ....  160
 Nuclear Repulsion      ENuc            ....    120.0557964716 Eh

Convergence Acceleration:
 DIIS                   CNVDIIS         .... on
   Start iteration      DIISMaxIt       ....    12
   Startup error        DIISStart       ....  0.200000
   # of expansion vecs  DIISMaxEq       ....     5
   Bias factor          DIISBfac        ....   1.050
   Max. coefficient     DIISMaxC        ....  10.000
 Newton-Raphson         CNVNR           .... off
 SOSCF                  CNVSOSCF        .... on
   Start iteration      SOSCFMaxIt      ....   150
   Startup grad/error   SOSCFStart      ....  0.003300
 Level Shifting         CNVShift        .... on
   Level shift para.    LevelShift      ....    0.2500
   Turn off err/grad.   ShiftErr        ....    0.0010
 Zerner damping         CNVZerner       .... off
 Static damping         CNVDamp         .... on
   Fraction old density DampFac         ....    0.7000
   Max. Damping (<1)    DampMax         ....    0.9800
   Min. Damping (>=0)   DampMin         ....    0.0000
   Turn off err/grad.   DampErr         ....    0.1000
 Fernandez-Rico         CNVRico         .... off

SCF Procedure:
 Maximum # iterations   MaxIter         ....   125
 SCF integral mode      SCFMode         .... Direct
   Integral package                     .... LIBINT
 Reset frequency        DirectResetFreq ....    20
 Integral Threshold     Thresh          ....  2.500e-11 Eh
 Primitive CutOff       TCut            ....  2.500e-12 Eh

Convergence Tolerance:
 Convergence Check Mode ConvCheckMode   .... Total+1el-Energy
 Convergence forced     ConvForced      .... 0
 Energy Change          TolE            ....  1.000e-08 Eh
 1-El. energy change                    ....  1.000e-05 Eh
 Orbital Gradient       TolG            ....  1.000e-05
 Orbital Rotation angle TolX            ....  1.000e-05
 DIIS Error             TolErr          ....  5.000e-07


Diagonalization of the overlap matrix:
Smallest eigenvalue                        ... 3.783e-04
Time for diagonalization                   ...    0.005 sec
Threshold for overlap eigenvalues          ... 1.000e-08
Number of eigenvalues below threshold      ... 0
Time for construction of square roots      ...    0.003 sec
Total time needed                          ...    0.008 sec

---------------------
INITIAL GUESS: MOREAD
---------------------
Guess MOs are being read from file: temp.ges
Input Geometry matches current geometry (good)
Input basis set matches current basis set (good)
MOs were renormalized
MOs were reorthogonalized (Cholesky)
                      ------------------
                      INITIAL GUESS DONE (   0.0 sec)
                      ------------------
-------------------
DFT GRID GENERATION
-------------------

General Integration Accuracy     IntAcc      ...  4.340
Radial Grid Type                 RadialGrid  ... Gauss-Chebyshev
Angular Grid (max. acc.)         AngularGrid ... Lebedev-110
Angular grid pruning method      GridPruning ... 3 (G Style)
Weight generation scheme         WeightScheme... Becke
Basis function cutoff            BFCut       ...    1.0000e-11
Integration weight cutoff        WCut        ...    1.0000e-14
Grids for H and He will be reduced by one unit

# of grid points (after initial pruning)     ...  11448 (   0.0 sec)
# of grid points (after weights+screening)   ...  10907 (   0.0 sec)
nearest neighbour list constructed           ...    0.0 sec
Grid point re-assignment to atoms done       ...    0.0 sec
Grid point division into batches done        ...    0.0 sec
Reduced shell lists constructed in    0.0 sec

Total number of grid points                  ...    10907
Total number of batches                      ...      177
Average number of points per batch           ...       61
Average number of grid points per atom       ...     1091
Average number of shells per batch           ...    30.38 (44.67%)
Average number of basis functions per batch  ...    71.62 (44.77%)
Average number of large shells per batch     ...    22.12 (72.84%)
Average number of large basis fcns per batch ...    51.38 (71.73%)
Maximum spatial batch extension              ...  14.68, 19.43, 14.55 au
Average spatial batch extension              ...   0.43,  0.47,  0.39 au

Time for grid setup =    0.023 sec

--------------
SCF ITERATIONS
--------------
ITER       Energy         Delta-E        Max-DP      RMS-DP      [F,P]     Damp
               ***  Starting incremental Fock matrix formation  ***
                      *** Initiating the SOSCF procedure ***
                      *** Re-Reading the Fockian *** 
                      *** Removing any level shift *** 
ITER      Energy       Delta-E        Grad      Rot      Max-DP    RMS-DP
  0   -193.01935921 -193.0193592125  0.000001  0.000001  0.000004  0.000000
               *** Restarting incremental Fock matrix formation ***
                  ***Gradient check signals convergence***
              ***Rediagonalizing the Fockian in SOSCF/NRSCF***

               *****************************************************
               *                     SUCCESS                       *
               *           SCF CONVERGED AFTER   1 CYCLES          *
               *****************************************************

Setting up the final grid:

General Integration Accuracy     IntAcc      ...  4.670
Radial Grid Type                 RadialGrid  ... Gauss-Chebyshev
Angular Grid (max. acc.)         AngularGrid ... Lebedev-302
Angular grid pruning method      GridPruning ... 3 (G Style)
Weight generation scheme         WeightScheme... Becke
Basis function cutoff            BFCut       ...    1.0000e-11
Integration weight cutoff        WCut        ...    1.0000e-14
Grids for H and He will be reduced by one unit

# of grid points (after initial pruning)     ...  45212 (   0.0 sec)
# of grid points (after weights+screening)   ...  42620 (   0.0 sec)
nearest neighbour list constructed           ...    0.0 sec
Grid point re-assignment to atoms done       ...    0.0 sec
Grid point division into batches done        ...    0.2 sec
Reduced shell lists constructed in    0.2 sec

Total number of grid points                  ...    42620
Total number of batches                      ...      671
Average number of points per batch           ...       63
Average number of grid points per atom       ...     4262
Average number of shells per batch           ...    20.07 (29.52%)
Average number of basis functions per batch  ...    44.22 (27.64%)
Average number of large shells per batch     ...    13.96 (69.56%)
Average number of large basis fcns per batch ...    29.00 (65.58%)
Maximum spatial batch extension              ...  16.56, 15.13, 14.38 au
Average spatial batch extension              ...   0.33,  0.31,  0.30 au

Final grid set up in    0.2 sec
Final integration                            ... done (   0.0 sec)
Change in XC energy                          ...    -0.000116728
Integrated number of electrons               ...    32.000044323
Previous integrated no of electrons          ...    31.999269886

----------------
TOTAL SCF ENERGY
----------------

Total Energy       :         -193.01947594 Eh           -5252.32696 eV

Components:
Nuclear Repulsion  :          120.05579647 Eh            3266.88431 eV
Electronic Energy  :         -313.07527241 Eh           -8519.21127 eV
One Electron Energy:         -498.63210868 Eh          -13568.46948 eV
Two Electron Energy:          185.55683627 Eh            5049.25821 eV

Virial components:
Potential Energy   :         -385.14281708 Eh          -10480.26886 eV
Kinetic Energy     :          192.12334114 Eh            5227.94190 eV
Virial Ratio       :            2.00466437


DFT components:
N(Alpha)           :       16.000022161435 electrons
N(Beta)            :       16.000022161435 electrons
N(Total)           :       32.000044322870 electrons
E(X)               :      -19.371380966664 Eh       
E(C)               :       -1.042488281427 Eh       
E(XC)              :      -20.413869248092 Eh       
DFET-embed. en.    :        0.000000000000 Eh       

---------------
SCF CONVERGENCE
---------------

  Last Energy change         ...   -2.1942e-11  Tolerance :   1.0000e-08
  Last MAX-Density change    ...    1.7036e-06  Tolerance :   1.0000e-07
  Last RMS-Density change    ...    4.6463e-08  Tolerance :   5.0000e-09
  Last Orbital Gradient      ...    4.9255e-07  Tolerance :   1.0000e-05
  Last Orbital Rotation      ...    7.6735e-07  Tolerance :   1.0000e-05

             **** THE GBW FILE WAS UPDATED (temp.gbw) ****
             **** DENSITY FILE WAS UPDATED (temp.scfp) ****
             **** ENERGY FILE WAS UPDATED (temp.en.tmp) ****
             **** THE GBW FILE WAS UPDATED (temp.gbw) ****
             **** DENSITY FILE WAS UPDATED (temp.scfp) ****
----------------
ORBITAL ENERGIES
----------------

  NO   OCC          E(Eh)            E(eV) 
   0   2.0000     -19.202327      -522.5219 
   1   2.0000     -10.323298      -280.9112 
   2   2.0000     -10.225064      -278.2381 
   3   2.0000     -10.224191      -278.2144 
   4   2.0000      -1.086194       -29.5568 
   5   2.0000      -0.797689       -21.7062 
   6   2.0000      -0.734812       -19.9952 
   7   2.0000      -0.558134       -15.1876 
   8   2.0000      -0.483102       -13.1459 
   9   2.0000      -0.481466       -13.1014 
  10   2.0000      -0.478348       -13.0165 
  11   2.0000      -0.417133       -11.3508 
  12   2.0000      -0.414481       -11.2786 
  13   2.0000      -0.394016       -10.7217 
  14   2.0000      -0.376544       -10.2463 
  15   2.0000      -0.274392        -7.4666 
  16   0.0000      -0.018967        -0.5161 
  17   0.0000       0.046966         1.2780 
  18   0.0000       0.096666         2.6304 
  19   0.0000       0.106634         2.9017 
  20   0.0000       0.119339         3.2474 
  21   0.0000       0.136580         3.7165 
  22   0.0000       0.145481         3.9587 
  23   0.0000       0.150239         4.0882 
  24   0.0000       0.170290         4.6338 
  25   0.0000       0.191976         5.2239 
  26   0.0000       0.211208         5.7473 
  27   0.0000       0.229632         6.2486 
  28   0.0000       0.231720         6.3054 
  29   0.0000       0.300789         8.1849 
  30   0.0000       0.308003         8.3812 
  31   0.0000       0.313809         8.5392 
  32   0.0000       0.375454        10.2166 
  33   0.0000       0.381052        10.3690 
  34   0.0000       0.412123        11.2144 
  35   0.0000       0.419545        11.4164 
  36   0.0000       0.428977        11.6731 
  37   0.0000       0.439933        11.9712 
  38   0.0000       0.453867        12.3504 
  39   0.0000       0.473617        12.8878 
  40   0.0000       0.474482        12.9113 
  41   0.0000       0.498755        13.5718 
  42   0.0000       0.541445        14.7335 
  43   0.0000       0.575038        15.6476 
  44   0.0000       0.587515        15.9871 
  45   0.0000       0.622419        16.9369 
  46   0.0000       0.664922        18.0935 
  47   0.0000       0.670216        18.2375 
  48   0.0000       0.730389        19.8749 
  49   0.0000       0.795545        21.6479 
  50   0.0000       0.827476        22.5168 
  51   0.0000       0.840004        22.8577 
  52   0.0000       0.909365        24.7451 
  53   0.0000       0.945520        25.7289 
  54   0.0000       0.981358        26.7041 
  55   0.0000       0.985322        26.8120 
  56   0.0000       1.003444        27.3051 
  57   0.0000       1.056922        28.7603 
  58   0.0000       1.112807        30.2810 
  59   0.0000       1.114069        30.3154 
  60   0.0000       1.137853        30.9626 
  61   0.0000       1.231546        33.5121 
  62   0.0000       1.390488        37.8371 
  63   0.0000       1.408202        38.3191 
  64   0.0000       1.447983        39.4016 
  65   0.0000       1.505368        40.9632 
  66   0.0000       1.513033        41.1717 
  67   0.0000       1.522203        41.4213 
  68   0.0000       1.529218        41.6121 
  69   0.0000       1.535718        41.7890 
  70   0.0000       1.566388        42.6236 
  71   0.0000       1.571335        42.7582 
  72   0.0000       1.588987        43.2385 
  73   0.0000       1.634827        44.4859 
  74   0.0000       1.655558        45.0500 
  75   0.0000       1.708873        46.5008 
  76   0.0000       1.849468        50.3266 
  77   0.0000       1.871640        50.9299 
  78   0.0000       1.880002        51.1575 
  79   0.0000       1.957756        53.2732 
  80   0.0000       2.004222        54.5377 
  81   0.0000       2.027920        55.1825 
  82   0.0000       2.046291        55.6824 
  83   0.0000       2.091854        56.9222 
  84   0.0000       2.116938        57.6048 
  85   0.0000       2.164409        58.8966 
  86   0.0000       2.172657        59.1210 
  87   0.0000       2.204469        59.9867 
  88   0.0000       2.214599        60.2623 
  89   0.0000       2.330982        63.4292 
  90   0.0000       2.352819        64.0235 
  91   0.0000       2.353171        64.0330 
  92   0.0000       2.398844        65.2759 
  93   0.0000       2.456892        66.8554 
  94   0.0000       2.475836        67.3709 
  95   0.0000       2.523152        68.6584 
  96   0.0000       2.532166        68.9037 
  97   0.0000       2.563473        69.7556 
  98   0.0000       2.564739        69.7901 
  99   0.0000       2.658888        72.3520 
 100   0.0000       2.703399        73.5632 
 101   0.0000       2.756981        75.0213 
 102   0.0000       2.790543        75.9345 
 103   0.0000       2.811595        76.5074 
 104   0.0000       2.850734        77.5724 
 105   0.0000       2.908755        79.1513 
 106   0.0000       2.973774        80.9205 
 107   0.0000       2.980691        81.1087 
 108   0.0000       3.004278        81.7506 
 109   0.0000       3.074635        83.6651 
 110   0.0000       3.076227        83.7084 
 111   0.0000       3.100826        84.3778 
 112   0.0000       3.112448        84.6940 
 113   0.0000       3.126956        85.0888 
 114   0.0000       3.145162        85.5842 
 115   0.0000       3.231268        87.9273 
 116   0.0000       3.292405        89.5909 
 117   0.0000       3.303606        89.8957 
 118   0.0000       3.316861        90.2564 
 119   0.0000       3.376290        91.8735 
 120   0.0000       3.384679        92.1018 
 121   0.0000       3.424486        93.1850 
 122   0.0000       3.453997        93.9880 
 123   0.0000       3.492991        95.0491 
 124   0.0000       3.527644        95.9921 
 125   0.0000       3.544516        96.4512 
 126   0.0000       3.677228       100.0625 
 127   0.0000       3.766518       102.4922 
 128   0.0000       3.863335       105.1267 
 129   0.0000       3.866220       105.2052 
 130   0.0000       3.902142       106.1827 
 131   0.0000       3.981989       108.3554 
 132   0.0000       3.987146       108.4958 
 133   0.0000       4.011169       109.1495 
 134   0.0000       4.066681       110.6600 
 135   0.0000       4.326205       117.7220 
 136   0.0000       4.368184       118.8643 
 137   0.0000       4.388062       119.4052 
 138   0.0000       4.405678       119.8846 
 139   0.0000       4.447466       121.0217 
 140   0.0000       4.531541       123.3095 
 141   0.0000       4.666568       126.9838 
 142   0.0000       4.773968       129.9063 
 143   0.0000       4.790154       130.3467 
 144   0.0000       5.195792       141.3847 
 145   0.0000       5.200243       141.5058 
 146   0.0000       5.607912       152.5990 
 147   0.0000       5.691779       154.8812 
 148   0.0000       6.156713       167.5327 
 149   0.0000       6.352845       172.8697 
 150   0.0000       6.395714       174.0362 
 151   0.0000       6.517715       177.3560 
 152   0.0000       6.544953       178.0972 
 153   0.0000       6.811961       185.3629 
 154   0.0000       6.999032       190.4534 
 155   0.0000       7.079606       192.6459 
 156   0.0000      22.392092       609.3198 
 157   0.0000      22.406707       609.7175 
 158   0.0000      23.050334       627.2315 
 159   0.0000      43.916731      1195.0350 

                    ********************************
                    * MULLIKEN POPULATION ANALYSIS *
                    ********************************

-----------------------
MULLIKEN ATOMIC CHARGES
-----------------------
   0 O :   -0.386941
   1 C :    0.237039
   2 C :   -0.398423
   3 C :   -0.343739
   4 H :    0.162896
   5 H :    0.127816
   6 H :    0.173593
   7 H :    0.127382
   8 H :    0.147325
   9 H :    0.153052
Sum of atomic charges:   -0.0000000

--------------------------------
MULLIKEN REDUCED ORBITAL CHARGES
--------------------------------
  0 O s       :     3.791998  s :     3.791998
      pz      :     1.382988  p :     4.563295
      px      :     1.363674
      py      :     1.816633
      dz2     :     0.009976  d :     0.029744
      dxz     :     0.010234
      dyz     :     0.008165
      dx2y2   :     0.000863
      dxy     :     0.000506
      f0      :     0.000626  f :     0.001904
      f+1     :     0.000564
      f-1     :     0.000551
      f+2     :     0.000073
      f-2     :     0.000061
      f+3     :     0.000015
      f-3     :     0.000013
  1 C s       :     3.186887  s :     3.186887
      pz      :     0.767331  p :     2.346333
      px      :     0.654055
      py      :     0.924947
      dz2     :     0.041971  d :     0.211494
      dxz     :     0.045159
      dyz     :     0.085435
      dx2y2   :     0.018478
      dxy     :     0.020452
      f0      :     0.003404  f :     0.018247
      f+1     :     0.003168
      f-1     :     0.007064
      f+2     :     0.001256
      f-2     :     0.001742
      f+3     :     0.000754
      f-3     :     0.000858
  2 C s       :     3.207813  s :     3.207813
      pz      :     1.063645  p :     3.139580
      px      :     1.067502
      py      :     1.008433
      dz2     :     0.006091  d :     0.047846
      dxz     :     0.013093
      dyz     :     0.012829
      dx2y2   :     0.010917
      dxy     :     0.004916
      f0      :     0.000140  f :     0.003184
      f+1     :     0.000074
      f-1     :     0.000785
      f+2     :     0.001444
      f-2     :     0.000371
      f+3     :     0.000200
      f-3     :     0.000170
  3 C s       :     3.183569  s :     3.183569
      pz      :     1.026386  p :     3.112030
      px      :     1.089146
      py      :     0.996497
      dz2     :     0.009426  d :     0.045060
      dxz     :     0.008992
      dyz     :     0.011418
      dx2y2   :     0.009638
      dxy     :     0.005588
      f0      :     0.000252  f :     0.003079
      f+1     :     0.000281
      f-1     :     0.000673
      f+2     :     0.001075
      f-2     :     0.000390
      f+3     :     0.000277
      f-3     :     0.000131
  4 H s       :     0.815425  s :     0.815425
      pz      :     0.007954  p :     0.021680
      px      :     0.004413
      py      :     0.009313
  5 H s       :     0.850901  s :     0.850901
      pz      :     0.007155  p :     0.021283
      px      :     0.009682
      py      :     0.004446
  6 H s       :     0.804722  s :     0.804722
      pz      :     0.007861  p :     0.021685
      px      :     0.009010
      py      :     0.004815
  7 H s       :     0.851184  s :     0.851184
      pz      :     0.006587  p :     0.021434
      px      :     0.005034
      py      :     0.009812
  8 H s       :     0.830585  s :     0.830585
      pz      :     0.005686  p :     0.022089
      px      :     0.011673
      py      :     0.004730
  9 H s       :     0.825439  s :     0.825439
      pz      :     0.009898  p :     0.021509
      px      :     0.007314
      py      :     0.004297


                     *******************************
                     * LOEWDIN POPULATION ANALYSIS *
                     *******************************

----------------------
LOEWDIN ATOMIC CHARGES
----------------------
   0 O :    0.075094
   1 C :   -0.376248
   2 C :   -0.272217
   3 C :   -0.267043
   4 H :    0.135806
   5 H :    0.134246
   6 H :    0.150864
   7 H :    0.128675
   8 H :    0.147214
   9 H :    0.143611

-------------------------------
LOEWDIN REDUCED ORBITAL CHARGES
-------------------------------
  0 O s       :     3.395243  s :     3.395243
      pz      :     1.509066  p :     4.455501
      px      :     1.287325
      py      :     1.659110
      dz2     :     0.027176  d :     0.067988
      dxz     :     0.013750
      dyz     :     0.024965
      dx2y2   :     0.000865
      dxy     :     0.001232
      f0      :     0.002263  f :     0.006174
      f+1     :     0.001309
      f-1     :     0.002145
      f+2     :     0.000145
      f-2     :     0.000285
      f+3     :     0.000013
      f-3     :     0.000013
  1 C s       :     2.777329  s :     2.777329
      pz      :     0.991371  p :     2.689066
      px      :     0.667577
      py      :     1.030119
      dz2     :     0.201813  d :     0.795834
      dxz     :     0.137082
      dyz     :     0.315286
      dx2y2   :     0.065430
      dxy     :     0.076223
      f0      :     0.022044  f :     0.114019
      f+1     :     0.018784
      f-1     :     0.046446
      f+2     :     0.006009
      f-2     :     0.010117
      f+3     :     0.004950
      f-3     :     0.005670
  2 C s       :     2.836666  s :     2.836666
      pz      :     1.072546  p :     3.191899
      px      :     1.069042
      py      :     1.050311
      dz2     :     0.020523  d :     0.220836
      dxz     :     0.051828
      dyz     :     0.064848
      dx2y2   :     0.062880
      dxy     :     0.020757
      f0      :     0.003529  f :     0.022816
      f+1     :     0.001434
      f-1     :     0.005440
      f+2     :     0.004360
      f-2     :     0.001952
      f+3     :     0.003156
      f-3     :     0.002946
  3 C s       :     2.835832  s :     2.835832
      pz      :     1.066322  p :     3.188074
      px      :     1.076153
      py      :     1.045600
      dz2     :     0.036539  d :     0.220241
      dxz     :     0.041450
      dyz     :     0.058756
      dx2y2   :     0.059878
      dxy     :     0.023618
      f0      :     0.003445  f :     0.022896
      f+1     :     0.002592
      f-1     :     0.004829
      f+2     :     0.003778
      f-2     :     0.002777
      f+3     :     0.003126
      f-3     :     0.002349
  4 H s       :     0.800860  s :     0.800860
      pz      :     0.024488  p :     0.063334
      px      :     0.013122
      py      :     0.025724
  5 H s       :     0.803197  s :     0.803197
      pz      :     0.020255  p :     0.062557
      px      :     0.029267
      py      :     0.013035
  6 H s       :     0.785725  s :     0.785725
      pz      :     0.023256  p :     0.063412
      px      :     0.026469
      py      :     0.013688
  7 H s       :     0.808695  s :     0.808695
      pz      :     0.020109  p :     0.062630
      px      :     0.015290
      py      :     0.027230
  8 H s       :     0.789645  s :     0.789645
      pz      :     0.016062  p :     0.063141
      px      :     0.033811
      py      :     0.013268
  9 H s       :     0.793169  s :     0.793169
      pz      :     0.029070  p :     0.063220
      px      :     0.021183
      py      :     0.012967


                      *****************************
                      * MAYER POPULATION ANALYSIS *
                      *****************************

  NA   - Mulliken gross atomic population
  ZA   - Total nuclear charge
  QA   - Mulliken gross atomic charge
  VA   - Mayer's total valence
  BVA  - Mayer's bonded valence
  FA   - Mayer's free valence

  ATOM       NA         ZA         QA         VA         BVA        FA
  0 O      8.3869     8.0000    -0.3869     2.0768     2.0768     0.0000
  1 C      5.7630     6.0000     0.2370     4.1431     4.1431    -0.0000
  2 C      6.3984     6.0000    -0.3984     3.7607     3.7607    -0.0000
  3 C      6.3437     6.0000    -0.3437     3.7812     3.7812    -0.0000
  4 H      0.8371     1.0000     0.1629     0.9839     0.9839     0.0000
  5 H      0.8722     1.0000     0.1278     0.9667     0.9667    -0.0000
  6 H      0.8264     1.0000     0.1736     0.9687     0.9687    -0.0000
  7 H      0.8726     1.0000     0.1274     0.9943     0.9943     0.0000
  8 H      0.8527     1.0000     0.1473     0.9751     0.9751     0.0000
  9 H      0.8469     1.0000     0.1531     0.9660     0.9660     0.0000

  Mayer bond orders larger than 0.100000
B(  0-O ,  1-C ) :   2.0502 B(  1-C ,  2-C ) :   1.0001 B(  1-C ,  3-C ) :   1.0235 
B(  2-C ,  4-H ) :   0.9589 B(  2-C ,  5-H ) :   0.9447 B(  2-C ,  6-H ) :   0.9295 
B(  3-C ,  7-H ) :   0.9636 B(  3-C ,  8-H ) :   0.9298 B(  3-C ,  9-H ) :   0.9364 


-------
TIMINGS
-------

Total SCF time: 0 days 0 hours 0 min 1 sec 

Total time                  ....       1.165 sec
Sum of individual times     ....       0.926 sec  ( 79.5%)

Fock matrix formation       ....       0.662 sec  ( 56.8%)
  XC integration            ....       0.074 sec  ( 11.2% of F)
    Basis function eval.    ....       0.009 sec  ( 12.2% of XC)
    Density eval.           ....       0.010 sec  ( 13.9% of XC)
    XC-Functional eval.     ....       0.002 sec  (  3.2% of XC)
    XC-Potential eval.      ....       0.018 sec  ( 24.2% of XC)
Diagonalization             ....       0.005 sec  (  0.5%)
Density matrix formation    ....       0.001 sec  (  0.1%)
Population analysis         ....       0.006 sec  (  0.6%)
Initial guess               ....       0.008 sec  (  0.7%)
Orbital Transformation      ....       0.000 sec  (  0.0%)
Orbital Orthonormalization  ....       0.005 sec  (  0.4%)
DIIS solution               ....       0.001 sec  (  0.1%)
SOSCF solution              ....       0.003 sec  (  0.3%)
Grid generation             ....       0.238 sec  ( 20.5%)

-------------------------   --------------------
FINAL SINGLE POINT ENERGY      -193.019475940851
-------------------------   --------------------


                            ***************************************
                            *     ORCA property calculations      *
                            ***************************************

                                    ---------------------
                                    Active property flags
                                    ---------------------
   (+) Dipole Moment


------------------------------------------------------------------------------
                       ORCA ELECTRIC PROPERTIES CALCULATION
------------------------------------------------------------------------------

Dipole Moment Calculation                       ... on
Quadrupole Moment Calculation                   ... off
Polarizability Calculation                      ... off
GBWName                                         ... temp.gbw
Electron density file                           ... temp.scfp
The origin for moment calculation is the CENTER OF MASS  = ( 0.859452, 17.784360  4.810753)

-------------
DIPOLE MOMENT
-------------
                                X             Y             Z
Electronic contribution:     -0.85279      -0.10101       3.42941
Nuclear contribution   :      1.07117       0.17750      -4.94258
                        -----------------------------------------
Total Dipole Moment    :      0.21838       0.07649      -1.51317
                        -----------------------------------------
Magnitude (a.u.)       :      1.53076
Magnitude (Debye)      :      3.89089



--------------------
Rotational spectrum 
--------------------
 
Rotational constants in cm-1:     0.341602     0.286936     0.165457 
Rotational constants in MHz : 10240.984489  8602.114949  4960.286098 

 Dipole components along the rotational axes: 
x,y,z [a.u.] :     0.012537    -1.526704    -0.110700 
x,y,z [Debye]:     0.031868    -3.880572    -0.281377 

 

Timings for individual modules:

Sum of individual times         ...        2.648 sec (=   0.044 min)
GTO integral calculation        ...        0.923 sec (=   0.015 min)  34.9 %
SCF iterations                  ...        1.724 sec (=   0.029 min)  65.1 %
                             ****ORCA TERMINATED NORMALLY****
TOTAL RUN TIME: 0 days 0 hours 0 minutes 4 seconds 32 msec
