
                                 *****************
                                 * O   R   C   A *
                                 *****************

           --- An Ab Initio, DFT and Semiempirical electronic structure package ---

                  #######################################################
                  #                        -***-                        #
                  #          Department of theory and spectroscopy      #
                  #               Directorship: Frank Neese             #
                  #        Max Planck Institute fuer Kohlenforschung    #
                  #                Kaiser Wilhelm Platz 1               #
                  #                 D-45470 Muelheim/Ruhr               #
                  #                      Germany                        #
                  #                                                     #
                  #                  All rights reserved                #
                  #                        -***-                        #
                  #######################################################


                         Program Version 4.2.1 -  RELEASE  -


 With contributions from (in alphabetic order):
   Daniel Aravena         : Magnetic Suceptibility
   Michael Atanasov       : Ab Initio Ligand Field Theory (pilot matlab implementation)
   Alexander A. Auer      : GIAO ZORA, VPT2
   Ute Becker             : Parallelization
   Giovanni Bistoni       : ED, misc. LED, open-shell LED, HFLD
   Martin Brehm           : Molecular dynamics
   Dmytro Bykov           : SCF Hessian
   Vijay G. Chilkuri      : MRCI spin determinant printing, contributions to CSF-ICE
   Dipayan Datta          : RHF DLPNO-CCSD density
   Achintya Kumar Dutta   : EOM-CC, STEOM-CC
   Dmitry Ganyushin       : Spin-Orbit,Spin-Spin,Magnetic field MRCI
   Miquel Garcia          : C-PCM Hessian, Gaussian charge scheme
   Yang Guo               : DLPNO-NEVPT2, CIM, IAO-localization
   Andreas Hansen         : Spin unrestricted coupled pair/coupled cluster methods
   Benjamin Helmich-Paris : CASSCF linear response (MC-RPA)
   Lee Huntington         : MR-EOM, pCC
   Robert Izsak           : Overlap fitted RIJCOSX, COSX-SCS-MP3, EOM
   Christian Kollmar      : KDIIS, OOCD, Brueckner-CCSD(T), CCSD density
   Simone Kossmann        : Meta GGA functionals, TD-DFT gradient, OOMP2, MP2 Hessian
   Martin Krupicka        : AUTO-CI
   Lucas Lang             : DCDCAS
   Dagmar Lenk            : GEPOL surface, SMD
   Dimitrios Liakos       : Extrapolation schemes; Compound Job, initial MDCI parallelization
   Dimitrios Manganas     : Further ROCIS development; embedding schemes
   Dimitrios Pantazis     : SARC Basis sets
   Taras Petrenko         : DFT Hessian,TD-DFT gradient, ASA, ECA, R-Raman, ABS, FL, XAS/XES, NRVS
   Peter Pinski           : DLPNO-MP2, DLPNO-MP2 Gradient
   Christoph Reimann      : Effective Core Potentials
   Marius Retegan         : Local ZFS, SOC
   Christoph Riplinger    : Optimizer, TS searches, QM/MM, DLPNO-CCSD(T), (RO)-DLPNO pert. Triples
   Tobias Risthaus        : Range-separated hybrids, TD-DFT gradient, RPA, STAB
   Michael Roemelt        : Original ROCIS implementation
   Masaaki Saitow         : Open-shell DLPNO-CCSD energy and density
   Barbara Sandhoefer     : DKH picture change effects
   Avijit Sen             : IP-ROCIS
   Kantharuban Sivalingam : CASSCF convergence, NEVPT2, FIC-MRCI
   Bernardo de Souza      : ESD, SOC TD-DFT
   Georgi Stoychev        : AutoAux, RI-MP2 NMR
   Willem Van den Heuvel  : Paramagnetic NMR
   Boris Wezisla          : Elementary symmetry handling
   Frank Wennmohs         : Technical directorship


 We gratefully acknowledge several colleagues who have allowed us to
 interface, adapt or use parts of their codes:
   Stefan Grimme, W. Hujo, H. Kruse,             : VdW corrections, initial TS optimization,
                  C. Bannwarth                     DFT functionals, gCP, sTDA/sTD-DF
   Ed Valeev, F. Pavosevic, A. Kumar             : LibInt (2-el integral package), F12 methods
   Garnet Chan, S. Sharma, J. Yang, R. Olivares  : DMRG
   Ulf Ekstrom                                   : XCFun DFT Library
   Mihaly Kallay                                 : mrcc  (arbitrary order and MRCC methods)
   Andreas Klamt, Michael Diedenhofen            : otool_cosmo (COSMO solvation model)
   Jiri Pittner, Ondrej Demel                    : Mk-CCSD
   Frank Weinhold                                : gennbo (NPA and NBO analysis)
   Christopher J. Cramer and Donald G. Truhlar   : smd solvation model
   Lars Goerigk                                  : TD-DFT with DH, B97 family of functionals
   V. Asgeirsson, H. Jonsson                     : NEB implementation
   FAccTs GmbH                                   : IRC, NEB, NEB-TS, Multilevel, MM, QM/MM, CI optimization
   S Lehtola, MJT Oliveira, MAL Marques          : LibXC Library


 Your calculation uses the libint2 library for the computation of 2-el integrals
 For citations please refer to: http://libint.valeyev.net

 Your ORCA version has been built with support for libXC version: 4.2.3
 For citations please refer to: https://tddft.org/programs/libxc/

 This ORCA versions uses:
   CBLAS   interface :  Fast vector & matrix operations
   LAPACKE interface :  Fast linear algebra routines
   SCALAPACK package :  Parallel linear algebra routines



Reading of a custom basis requested
Basis file         : system.bas
READING GTO-BASIS: OXYGEN
READING GTO-BASIS: CARBON
READING GTO-BASIS: HYDROGEN
Basis successfully read

Reading of a custom AuxJ basis requested
Basis file: system.aux
READING GTO-BASIS: OXYGEN
READING GTO-BASIS: CARBON
READING GTO-BASIS: HYDROGEN
Basis read successfully!

----- Orbital basis set information -----
----- AuxJ basis set information -----
================================================================================
                                        WARNINGS
                       Please study these warnings very carefully!
================================================================================


INFO   : the flag for use of LIBINT has been found!

================================================================================
                                       INPUT FILE
================================================================================
NAME = temp.inp
|  1> * xyz  0 1
|  2>   O    2.677094   10.173417   13.839622
|  3>   C    2.493049   11.071917   13.056967
|  4>   C    1.956264   10.820191   11.671976
|  5>   C    2.789435   12.506090   13.410795
|  6>   H    1.660798    9.777970   11.568634
|  7>   H    1.107503   11.475807   11.457992
|  8>   H    2.729455   11.052404   10.932620
|  9>   H    3.269158   12.558932   14.386062
| 10>   H    1.858093   13.079903   13.431669
| 11>   H    3.426954   12.967340   12.651450
| 12> * 
| 13> 
| 14> %pal
| 15> nprocs 26
| 16> end
| 17> 
| 18> %basis
| 19> GTOName ="system.bas";
| 20> GTOAuxName ="system.aux";
| 21> end
| 22>  
| 23> 
| 24> %pointcharges "background.crg"
| 25> ! DFT PBE0 TightSCF  
| 26> 
| 27> 
| 28>                          ****END OF INPUT****
================================================================================

                       ****************************
                       * Single Point Calculation *
                       ****************************

---------------------------------
CARTESIAN COORDINATES (ANGSTROEM)
---------------------------------
  O      2.677094   10.173417   13.839622
  C      2.493049   11.071917   13.056967
  C      1.956264   10.820191   11.671976
  C      2.789435   12.506090   13.410795
  H      1.660798    9.777970   11.568634
  H      1.107503   11.475807   11.457992
  H      2.729455   11.052404   10.932620
  H      3.269158   12.558932   14.386062
  H      1.858093   13.079903   13.431669
  H      3.426954   12.967340   12.651450

----------------------------
CARTESIAN COORDINATES (A.U.)
----------------------------
  NO LB      ZA    FRAG     MASS         X           Y           Z
   0 O     8.0000    0    15.999    5.058974   19.224972   26.153095
   1 C     6.0000    0    12.011    4.711180   20.922891   24.674092
   2 C     6.0000    0    12.011    3.696803   20.447198   22.056838
   3 C     6.0000    0    12.011    5.271268   23.633085   25.342730
   4 H     1.0000    0     1.008    3.138453   18.477685   21.861550
   5 H     1.0000    0     1.008    2.092877   21.686132   21.652467
   6 H     1.0000    0     1.008    5.157922   20.886017   20.659658
   7 H     1.0000    0     1.008    6.177813   23.732942   27.185717
   8 H     1.0000    0     1.008    3.511287   24.717435   25.382176
   9 H     1.0000    0     1.008    6.476005   24.504721   23.907776

--------------------------------
INTERNAL COORDINATES (ANGSTROEM)
--------------------------------
 O      0   0   0     0.000000000000     0.00000000     0.00000000
 C      1   0   0     1.205704632590     0.00000000     0.00000000
 C      2   1   0     1.506553744605   121.77748994     0.00000000
 C      2   1   3     1.506615779988   121.79621109   180.09346995
 H      3   2   1     1.088211532268   110.12497248     7.24838775
 H      3   2   1     1.093625496609   110.86906874   129.44071161
 H      3   2   1     1.094712060126   109.49931997   247.01696124
 H      4   2   1     1.088150796067   110.08660949     6.00353208
 H      4   2   1     1.094118368281   109.64916960   245.55767641
 H      4   2   1     1.093520400764   110.67886036   128.04348333

---------------------------
INTERNAL COORDINATES (A.U.)
---------------------------
 O      0   0   0     0.000000000000     0.00000000     0.00000000
 C      1   0   0     2.278451553996     0.00000000     0.00000000
 C      2   1   0     2.846973983336   121.77748994     0.00000000
 C      2   1   3     2.847091213222   121.79621109   180.09346995
 H      3   2   1     2.056421771761   110.12497248     7.24838775
 H      3   2   1     2.066652681664   110.86906874   129.44071161
 H      3   2   1     2.068705989139   109.49931997   247.01696124
 H      4   2   1     2.056306996976   110.08660949     6.00353208
 H      4   2   1     2.067584074143   109.64916960   245.55767641
 H      4   2   1     2.066454079299   110.67886036   128.04348333

---------------------
BASIS SET INFORMATION
---------------------
There are 3 groups of distinct atoms

 Group   1 Type O   : 11s6p2d1f contracted to 5s3p2d1f pattern {62111/411/11/1}
 Group   2 Type C   : 11s6p2d1f contracted to 5s3p2d1f pattern {62111/411/11/1}
 Group   3 Type H   : 5s1p contracted to 3s1p pattern {311/1}

Atom   0O    basis set group =>   1
Atom   1C    basis set group =>   2
Atom   2C    basis set group =>   2
Atom   3C    basis set group =>   2
Atom   4H    basis set group =>   3
Atom   5H    basis set group =>   3
Atom   6H    basis set group =>   3
Atom   7H    basis set group =>   3
Atom   8H    basis set group =>   3
Atom   9H    basis set group =>   3
---------------------------------
AUXILIARY/J BASIS SET INFORMATION
---------------------------------
There are 3 groups of distinct atoms

 Group   1 Type O   : 8s6p5d3f1g contracted to 8s6p4d3f1g pattern {11111111/111111/2111/111/1}
 Group   2 Type C   : 8s6p5d3f1g contracted to 8s6p4d3f1g pattern {11111111/111111/2111/111/1}
 Group   3 Type H   : 4s3p2d contracted to 4s2p1d pattern {1111/21/2}

Atom   0O    basis set group =>   1
Atom   1C    basis set group =>   2
Atom   2C    basis set group =>   2
Atom   3C    basis set group =>   2
Atom   4H    basis set group =>   3
Atom   5H    basis set group =>   3
Atom   6H    basis set group =>   3
Atom   7H    basis set group =>   3
Atom   8H    basis set group =>   3
Atom   9H    basis set group =>   3

Checking for AutoStart:
The File: temp.gbw exists
Trying to determine its content:
     ... Fine, the file contains calculation information
     ... Fine, the calculation information was read
     ... Fine, the file contains a basis set
     ... Fine, the basis set was read
     ... Fine, the file contains a geometry
     ... Fine, the geometry was read
     ... Fine, the file contains a set of orbitals
     ... Fine, the orbitals can be read
     => possible old guess file was deleted
     => GBW file was renamed to GES file
     => GES file is set as startup file
     => Guess is set to MORead
     ... now leaving AutoStart



           ************************************************************
           *        Program running with 26 parallel MPI-processes    *
           *              working on a common directory               *
           ************************************************************
------------------------------------------------------------------------------
                           ORCA GTO INTEGRAL CALCULATION
------------------------------------------------------------------------------

                         BASIS SET STATISTICS AND STARTUP INFO

 # of primitive gaussian shells          ...  116
 # of primitive gaussian functions       ...  232
 # of contracted shells                  ...   68
 # of contracted basis functions         ...  160
 Highest angular momentum                ...    3
 Maximum contraction depth               ...    6
 Integral package used                   ... LIBINT
 Integral threshhold            Thresh   ...  2.500e-11
 Primitive cut-off              TCut     ...  2.500e-12


------------------------------ INTEGRAL EVALUATION ----------------------------


 * One electron integrals 
 Pre-screening matrix                    ... done
 Shell pair data                         ... done (   0.001 sec)

ENUC WAS=  0.000000000


           ************************************************************
           *        Program running with 26 parallel MPI-processes    *
           *              working on a common directory               *
           ************************************************************
------------------------------------------------------------------------------
                            ORCA POINT-CHARGE CORRECTION
------------------------------------------------------------------------------

BaseName                           ... temp
Point charge file                  ... background.crg

Reading the GBW file               ... done
Reading the one-electron matrix    ... done
Reading the point charges          ... done
Number of point charges            ... 855
Reading the nuclear-repulsion      ... done
Charge-Nuclei interaction          ... done
The nuclear repulsion file was updated
Doing the point charge correction  ... done
Storing the one-electron matrix    ... done

ENUC IS = 120.262340340


           ************************************************************
           *        Program running with 26 parallel MPI-processes    *
           *              working on a common directory               *
           ************************************************************
-------------------------------------------------------------------------------
                                 ORCA SCF
-------------------------------------------------------------------------------

------------
SCF SETTINGS
------------
Hamiltonian:
 Density Functional     Method          .... DFT(GTOs)
 Exchange Functional    Exchange        .... PBE
   PBE kappa parameter   XKappa         ....  0.804000
   PBE mue parameter    XMuePBE         ....  0.219520
 Correlation Functional Correlation     .... PBE
   PBE beta parameter  CBetaPBE         ....  0.066725
 LDA part of GGA corr.  LDAOpt          .... PW91-LDA
 Gradients option       PostSCFGGA      .... off
 Hybrid DFT is turned on
   Fraction HF Exchange ScalHFX         ....  0.250000
   Scaling of DF-GGA-X  ScalDFX         ....  0.750000
   Scaling of DF-GGA-C  ScalDFC         ....  1.000000
   Scaling of DF-LDA-C  ScalLDAC        ....  1.000000
   Perturbative correction              ....  0.000000
   Density functional embedding theory  .... OFF
   NL short-range parameter             ....  6.900000


General Settings:
 Integral files         IntName         .... temp
 Hartree-Fock type      HFTyp           .... RHF
 Total Charge           Charge          ....    0
 Multiplicity           Mult            ....    1
 Number of Electrons    NEL             ....   32
 Basis Dimension        Dim             ....  160
 Nuclear Repulsion      ENuc            ....    120.2623403400 Eh

Convergence Acceleration:
 DIIS                   CNVDIIS         .... on
   Start iteration      DIISMaxIt       ....    12
   Startup error        DIISStart       ....  0.200000
   # of expansion vecs  DIISMaxEq       ....     5
   Bias factor          DIISBfac        ....   1.050
   Max. coefficient     DIISMaxC        ....  10.000
 Newton-Raphson         CNVNR           .... off
 SOSCF                  CNVSOSCF        .... on
   Start iteration      SOSCFMaxIt      ....   150
   Startup grad/error   SOSCFStart      ....  0.003300
 Level Shifting         CNVShift        .... on
   Level shift para.    LevelShift      ....    0.2500
   Turn off err/grad.   ShiftErr        ....    0.0010
 Zerner damping         CNVZerner       .... off
 Static damping         CNVDamp         .... on
   Fraction old density DampFac         ....    0.7000
   Max. Damping (<1)    DampMax         ....    0.9800
   Min. Damping (>=0)   DampMin         ....    0.0000
   Turn off err/grad.   DampErr         ....    0.1000
 Fernandez-Rico         CNVRico         .... off

SCF Procedure:
 Maximum # iterations   MaxIter         ....   125
 SCF integral mode      SCFMode         .... Direct
   Integral package                     .... LIBINT
 Reset frequency        DirectResetFreq ....    20
 Integral Threshold     Thresh          ....  2.500e-11 Eh
 Primitive CutOff       TCut            ....  2.500e-12 Eh

Convergence Tolerance:
 Convergence Check Mode ConvCheckMode   .... Total+1el-Energy
 Convergence forced     ConvForced      .... 0
 Energy Change          TolE            ....  1.000e-08 Eh
 1-El. energy change                    ....  1.000e-05 Eh
 Orbital Gradient       TolG            ....  1.000e-05
 Orbital Rotation angle TolX            ....  1.000e-05
 DIIS Error             TolErr          ....  5.000e-07


Diagonalization of the overlap matrix:
Smallest eigenvalue                        ... 3.783e-04
Time for diagonalization                   ...    0.005 sec
Threshold for overlap eigenvalues          ... 1.000e-08
Number of eigenvalues below threshold      ... 0
Time for construction of square roots      ...    0.003 sec
Total time needed                          ...    0.009 sec

---------------------
INITIAL GUESS: MOREAD
---------------------
Guess MOs are being read from file: temp.ges
Input Geometry matches current geometry (good)
Input basis set matches current basis set (good)
MOs were renormalized
MOs were reorthogonalized (Cholesky)
                      ------------------
                      INITIAL GUESS DONE (   0.0 sec)
                      ------------------
-------------------
DFT GRID GENERATION
-------------------

General Integration Accuracy     IntAcc      ...  4.340
Radial Grid Type                 RadialGrid  ... Gauss-Chebyshev
Angular Grid (max. acc.)         AngularGrid ... Lebedev-110
Angular grid pruning method      GridPruning ... 3 (G Style)
Weight generation scheme         WeightScheme... Becke
Basis function cutoff            BFCut       ...    1.0000e-11
Integration weight cutoff        WCut        ...    1.0000e-14
Grids for H and He will be reduced by one unit

# of grid points (after initial pruning)     ...  11448 (   0.0 sec)
# of grid points (after weights+screening)   ...  10905 (   0.0 sec)
nearest neighbour list constructed           ...    0.0 sec
Grid point re-assignment to atoms done       ...    0.0 sec
Grid point division into batches done        ...    0.0 sec
Reduced shell lists constructed in    0.0 sec

Total number of grid points                  ...    10905
Total number of batches                      ...      175
Average number of points per batch           ...       62
Average number of grid points per atom       ...     1090
Average number of shells per batch           ...    31.75 (46.69%)
Average number of basis functions per batch  ...    75.75 (47.34%)
Average number of large shells per batch     ...    22.75 (71.65%)
Average number of large basis fcns per batch ...    53.25 (70.30%)
Maximum spatial batch extension              ...  20.95, 17.14, 18.26 au
Average spatial batch extension              ...   0.51,  0.46,  0.48 au

Time for grid setup =    0.024 sec

--------------
SCF ITERATIONS
--------------
ITER       Energy         Delta-E        Max-DP      RMS-DP      [F,P]     Damp
               ***  Starting incremental Fock matrix formation  ***
                      *** Initiating the SOSCF procedure ***
                      *** Re-Reading the Fockian *** 
                      *** Removing any level shift *** 
ITER      Energy       Delta-E        Grad      Rot      Max-DP    RMS-DP
  0   -193.02605237 -193.0260523674  0.000001  0.000001  0.000002  0.000000
               *** Restarting incremental Fock matrix formation ***
                  ***Gradient check signals convergence***
              ***Rediagonalizing the Fockian in SOSCF/NRSCF***

               *****************************************************
               *                     SUCCESS                       *
               *           SCF CONVERGED AFTER   1 CYCLES          *
               *****************************************************

Setting up the final grid:

General Integration Accuracy     IntAcc      ...  4.670
Radial Grid Type                 RadialGrid  ... Gauss-Chebyshev
Angular Grid (max. acc.)         AngularGrid ... Lebedev-302
Angular grid pruning method      GridPruning ... 3 (G Style)
Weight generation scheme         WeightScheme... Becke
Basis function cutoff            BFCut       ...    1.0000e-11
Integration weight cutoff        WCut        ...    1.0000e-14
Grids for H and He will be reduced by one unit

# of grid points (after initial pruning)     ...  45212 (   0.0 sec)
# of grid points (after weights+screening)   ...  42641 (   0.0 sec)
nearest neighbour list constructed           ...    0.0 sec
Grid point re-assignment to atoms done       ...    0.0 sec
Grid point division into batches done        ...    0.2 sec
Reduced shell lists constructed in    0.2 sec

Total number of grid points                  ...    42641
Total number of batches                      ...      672
Average number of points per batch           ...       63
Average number of grid points per atom       ...     4264
Average number of shells per batch           ...    21.48 (31.59%)
Average number of basis functions per batch  ...    48.74 (30.46%)
Average number of large shells per batch     ...    14.78 (68.79%)
Average number of large basis fcns per batch ...    31.15 (63.91%)
Maximum spatial batch extension              ...  15.14, 13.95, 14.53 au
Average spatial batch extension              ...   0.31,  0.28,  0.29 au

Final grid set up in    0.2 sec
Final integration                            ... done (   0.0 sec)
Change in XC energy                          ...    -0.000135777
Integrated number of electrons               ...    31.999975829
Previous integrated no of electrons          ...    31.998907667

----------------
TOTAL SCF ENERGY
----------------

Total Energy       :         -193.02618814 Eh           -5252.50961 eV

Components:
Nuclear Repulsion  :          120.26234034 Eh            3272.50465 eV
Electronic Energy  :         -313.28852848 Eh           -8525.01426 eV
One Electron Energy:         -498.94204139 Eh          -13576.90318 eV
Two Electron Energy:          185.65351291 Eh            5051.88892 eV

Virial components:
Potential Energy   :         -385.15505824 Eh          -10480.60196 eV
Kinetic Energy     :          192.12887009 Eh            5228.09235 eV
Virial Ratio       :            2.00467040


DFT components:
N(Alpha)           :       15.999987914661 electrons
N(Beta)            :       15.999987914661 electrons
N(Total)           :       31.999975829323 electrons
E(X)               :      -19.372220386223 Eh       
E(C)               :       -1.042660344919 Eh       
E(XC)              :      -20.414880731142 Eh       
DFET-embed. en.    :        0.000000000000 Eh       

---------------
SCF CONVERGENCE
---------------

  Last Energy change         ...   -6.8212e-12  Tolerance :   1.0000e-08
  Last MAX-Density change    ...    7.7893e-07  Tolerance :   1.0000e-07
  Last RMS-Density change    ...    2.6889e-08  Tolerance :   5.0000e-09
  Last Orbital Gradient      ...    2.2103e-07  Tolerance :   1.0000e-05
  Last Orbital Rotation      ...    5.8742e-07  Tolerance :   1.0000e-05

             **** THE GBW FILE WAS UPDATED (temp.gbw) ****
             **** DENSITY FILE WAS UPDATED (temp.scfp) ****
             **** ENERGY FILE WAS UPDATED (temp.en.tmp) ****
             **** THE GBW FILE WAS UPDATED (temp.gbw) ****
             **** DENSITY FILE WAS UPDATED (temp.scfp) ****
----------------
ORBITAL ENERGIES
----------------

  NO   OCC          E(Eh)            E(eV) 
   0   2.0000     -19.212233      -522.7914 
   1   2.0000     -10.328271      -281.0465 
   2   2.0000     -10.228234      -278.3244 
   3   2.0000     -10.221210      -278.1333 
   4   2.0000      -1.096382       -29.8341 
   5   2.0000      -0.799608       -21.7584 
   6   2.0000      -0.734905       -19.9978 
   7   2.0000      -0.560588       -15.2544 
   8   2.0000      -0.487640       -13.2693 
   9   2.0000      -0.483532       -13.1576 
  10   2.0000      -0.482967       -13.1422 
  11   2.0000      -0.419443       -11.4136 
  12   2.0000      -0.413800       -11.2601 
  13   2.0000      -0.393425       -10.7056 
  14   2.0000      -0.383168       -10.4265 
  15   2.0000      -0.283730        -7.7207 
  16   0.0000      -0.024385        -0.6636 
  17   0.0000       0.043061         1.1718 
  18   0.0000       0.100808         2.7431 
  19   0.0000       0.107563         2.9269 
  20   0.0000       0.117973         3.2102 
  21   0.0000       0.141277         3.8443 
  22   0.0000       0.141731         3.8567 
  23   0.0000       0.148431         4.0390 
  24   0.0000       0.158871         4.3231 
  25   0.0000       0.199093         5.4176 
  26   0.0000       0.209021         5.6877 
  27   0.0000       0.227772         6.1980 
  28   0.0000       0.240894         6.5551 
  29   0.0000       0.302742         8.2380 
  30   0.0000       0.308614         8.3978 
  31   0.0000       0.314844         8.5673 
  32   0.0000       0.369266        10.0483 
  33   0.0000       0.376201        10.2369 
  34   0.0000       0.408259        11.1093 
  35   0.0000       0.415786        11.3141 
  36   0.0000       0.425458        11.5773 
  37   0.0000       0.444517        12.0959 
  38   0.0000       0.453383        12.3372 
  39   0.0000       0.465482        12.6664 
  40   0.0000       0.479855        13.0575 
  41   0.0000       0.499522        13.5927 
  42   0.0000       0.530350        14.4316 
  43   0.0000       0.570779        15.5317 
  44   0.0000       0.587117        15.9763 
  45   0.0000       0.617133        16.7931 
  46   0.0000       0.663431        18.0529 
  47   0.0000       0.665102        18.0983 
  48   0.0000       0.721009        19.6197 
  49   0.0000       0.785770        21.3819 
  50   0.0000       0.827547        22.5187 
  51   0.0000       0.833092        22.6696 
  52   0.0000       0.909155        24.7394 
  53   0.0000       0.942231        25.6394 
  54   0.0000       0.979429        26.6516 
  55   0.0000       0.987014        26.8580 
  56   0.0000       1.005260        27.3545 
  57   0.0000       1.057165        28.7669 
  58   0.0000       1.108909        30.1750 
  59   0.0000       1.111079        30.2340 
  60   0.0000       1.134770        30.8787 
  61   0.0000       1.228096        33.4182 
  62   0.0000       1.382623        37.6231 
  63   0.0000       1.407571        38.3020 
  64   0.0000       1.442300        39.2470 
  65   0.0000       1.502952        40.8974 
  66   0.0000       1.509911        41.0868 
  67   0.0000       1.521709        41.4078 
  68   0.0000       1.525212        41.5031 
  69   0.0000       1.537156        41.8281 
  70   0.0000       1.566159        42.6174 
  71   0.0000       1.571345        42.7585 
  72   0.0000       1.588541        43.2264 
  73   0.0000       1.629279        44.3349 
  74   0.0000       1.652718        44.9728 
  75   0.0000       1.706620        46.4395 
  76   0.0000       1.846677        50.2506 
  77   0.0000       1.869919        50.8831 
  78   0.0000       1.876461        51.0611 
  79   0.0000       1.956049        53.2268 
  80   0.0000       2.000343        54.4321 
  81   0.0000       2.025880        55.1270 
  82   0.0000       2.044109        55.6230 
  83   0.0000       2.090742        56.8920 
  84   0.0000       2.115402        57.5630 
  85   0.0000       2.160613        58.7933 
  86   0.0000       2.167955        58.9931 
  87   0.0000       2.201163        59.8967 
  88   0.0000       2.213097        60.2214 
  89   0.0000       2.330573        63.4181 
  90   0.0000       2.353299        64.0365 
  91   0.0000       2.354165        64.0601 
  92   0.0000       2.398645        65.2704 
  93   0.0000       2.454725        66.7965 
  94   0.0000       2.471201        67.2448 
  95   0.0000       2.520585        68.5886 
  96   0.0000       2.533992        68.9534 
  97   0.0000       2.561099        69.6911 
  98   0.0000       2.565868        69.8208 
  99   0.0000       2.657653        72.3184 
 100   0.0000       2.698515        73.4303 
 101   0.0000       2.754187        74.9452 
 102   0.0000       2.790678        75.9382 
 103   0.0000       2.809626        76.4538 
 104   0.0000       2.850092        77.5550 
 105   0.0000       2.904717        79.0414 
 106   0.0000       2.970828        80.8403 
 107   0.0000       2.978416        81.0468 
 108   0.0000       2.996953        81.5512 
 109   0.0000       3.069628        83.5288 
 110   0.0000       3.073594        83.6368 
 111   0.0000       3.096352        84.2560 
 112   0.0000       3.111184        84.6596 
 113   0.0000       3.126241        85.0693 
 114   0.0000       3.141907        85.4956 
 115   0.0000       3.229010        87.8658 
 116   0.0000       3.289730        89.5181 
 117   0.0000       3.301415        89.8361 
 118   0.0000       3.315194        90.2110 
 119   0.0000       3.372265        91.7640 
 120   0.0000       3.382572        92.0445 
 121   0.0000       3.421161        93.0945 
 122   0.0000       3.450144        93.8832 
 123   0.0000       3.490520        94.9819 
 124   0.0000       3.524538        95.9076 
 125   0.0000       3.544010        96.4374 
 126   0.0000       3.674593        99.9908 
 127   0.0000       3.764122       102.4270 
 128   0.0000       3.860753       105.0564 
 129   0.0000       3.864521       105.1590 
 130   0.0000       3.901261       106.1587 
 131   0.0000       3.977352       108.2292 
 132   0.0000       3.986931       108.4899 
 133   0.0000       4.008066       109.0650 
 134   0.0000       4.063397       110.5707 
 135   0.0000       4.327097       117.7463 
 136   0.0000       4.366851       118.8280 
 137   0.0000       4.387015       119.3768 
 138   0.0000       4.402972       119.8110 
 139   0.0000       4.445515       120.9686 
 140   0.0000       4.526994       123.1858 
 141   0.0000       4.663104       126.8895 
 142   0.0000       4.770769       129.8192 
 143   0.0000       4.786054       130.2352 
 144   0.0000       5.184284       141.0715 
 145   0.0000       5.188625       141.1897 
 146   0.0000       5.598725       152.3491 
 147   0.0000       5.682607       154.6316 
 148   0.0000       6.147254       167.2753 
 149   0.0000       6.344482       172.6421 
 150   0.0000       6.383257       173.6973 
 151   0.0000       6.506580       177.0530 
 152   0.0000       6.537065       177.8826 
 153   0.0000       6.803212       185.1248 
 154   0.0000       6.988019       190.1537 
 155   0.0000       7.070344       192.3938 
 156   0.0000      22.391012       609.2904 
 157   0.0000      22.407723       609.7451 
 158   0.0000      23.045478       627.0993 
 159   0.0000      43.906613      1194.7597 

                    ********************************
                    * MULLIKEN POPULATION ANALYSIS *
                    ********************************

-----------------------
MULLIKEN ATOMIC CHARGES
-----------------------
   0 O :   -0.413344
   1 C :    0.199767
   2 C :   -0.315837
   3 C :   -0.310560
   4 H :    0.132185
   5 H :    0.129594
   6 H :    0.143683
   7 H :    0.117856
   8 H :    0.156445
   9 H :    0.160210
Sum of atomic charges:   -0.0000000

--------------------------------
MULLIKEN REDUCED ORBITAL CHARGES
--------------------------------
  0 O s       :     3.807402  s :     3.807402
      pz      :     1.587643  p :     4.573937
      px      :     1.421148
      py      :     1.565146
      dz2     :     0.006405  d :     0.030166
      dxz     :     0.004268
      dyz     :     0.007985
      dx2y2   :     0.004759
      dxy     :     0.006749
      f0      :     0.000219  f :     0.001838
      f+1     :     0.000050
      f-1     :     0.000536
      f+2     :     0.000309
      f-2     :     0.000429
      f+3     :     0.000162
      f-3     :     0.000133
  1 C s       :     3.188204  s :     3.188204
      pz      :     0.826424  p :     2.401941
      px      :     0.699112
      py      :     0.876406
      dz2     :     0.050857  d :     0.192317
      dxz     :     0.030791
      dyz     :     0.040706
      dx2y2   :     0.031107
      dxy     :     0.038856
      f0      :     0.002792  f :     0.017770
      f+1     :     0.001098
      f-1     :     0.004642
      f+2     :     0.002685
      f-2     :     0.002955
      f+3     :     0.001834
      f-3     :     0.001763
  2 C s       :     3.192162  s :     3.192162
      pz      :     0.960342  p :     3.077288
      px      :     1.051501
      py      :     1.065444
      dz2     :     0.010631  d :     0.043298
      dxz     :     0.009259
      dyz     :     0.010290
      dx2y2   :     0.004810
      dxy     :     0.008308
      f0      :     0.000679  f :     0.003088
      f+1     :     0.000790
      f-1     :     0.000684
      f+2     :     0.000150
      f-2     :     0.000171
      f+3     :     0.000211
      f-3     :     0.000402
  3 C s       :     3.185750  s :     3.185750
      pz      :     1.089551  p :     3.080110
      px      :     1.039172
      py      :     0.951387
      dz2     :     0.007283  d :     0.041670
      dxz     :     0.006573
      dyz     :     0.011324
      dx2y2   :     0.007027
      dxy     :     0.009463
      f0      :     0.000366  f :     0.003030
      f+1     :     0.000681
      f-1     :     0.000311
      f+2     :     0.000432
      f-2     :     0.000130
      f+3     :     0.000361
      f-3     :     0.000748
  4 H s       :     0.846131  s :     0.846131
      pz      :     0.004281  p :     0.021684
      px      :     0.004969
      py      :     0.012435
  5 H s       :     0.848651  s :     0.848651
      pz      :     0.005206  p :     0.021755
      px      :     0.009277
      py      :     0.007272
  6 H s       :     0.834531  s :     0.834531
      pz      :     0.008642  p :     0.021786
      px      :     0.008417
      py      :     0.004727
  7 H s       :     0.860372  s :     0.860372
      pz      :     0.011346  p :     0.021771
      px      :     0.006320
      py      :     0.004106
  8 H s       :     0.821751  s :     0.821751
      pz      :     0.004478  p :     0.021804
      px      :     0.009857
      py      :     0.007469
  9 H s       :     0.817984  s :     0.817984
      pz      :     0.007799  p :     0.021806
      px      :     0.007802
      py      :     0.006205


                     *******************************
                     * LOEWDIN POPULATION ANALYSIS *
                     *******************************

----------------------
LOEWDIN ATOMIC CHARGES
----------------------
   0 O :    0.058458
   1 C :   -0.386499
   2 C :   -0.260078
   3 C :   -0.258451
   4 H :    0.132672
   5 H :    0.139277
   6 H :    0.147101
   7 H :    0.131930
   8 H :    0.145786
   9 H :    0.149805

-------------------------------
LOEWDIN REDUCED ORBITAL CHARGES
-------------------------------
  0 O s       :     3.395340  s :     3.395340
      pz      :     1.561714  p :     4.470644
      px      :     1.332181
      py      :     1.576750
      dz2     :     0.017933  d :     0.069411
      dxz     :     0.006840
      dyz     :     0.022406
      dx2y2   :     0.014491
      dxy     :     0.007741
      f0      :     0.000820  f :     0.006147
      f+1     :     0.000221
      f-1     :     0.001894
      f+2     :     0.001379
      f-2     :     0.000854
      f+3     :     0.000352
      f-3     :     0.000628
  1 C s       :     2.779672  s :     2.779672
      pz      :     0.980429  p :     2.695846
      px      :     0.696576
      py      :     1.018841
      dz2     :     0.224183  d :     0.796578
      dxz     :     0.107027
      dyz     :     0.205829
      dx2y2   :     0.138180
      dxy     :     0.121359
      f0      :     0.017224  f :     0.114404
      f+1     :     0.006233
      f-1     :     0.032995
      f+2     :     0.017310
      f-2     :     0.020314
      f+3     :     0.008788
      f-3     :     0.011538
  2 C s       :     2.835304  s :     2.835304
      pz      :     1.044115  p :     3.182128
      px      :     1.066999
      py      :     1.071014
      dz2     :     0.058814  d :     0.219752
      dxz     :     0.055860
      dyz     :     0.039542
      dx2y2   :     0.027208
      dxy     :     0.038328
      f0      :     0.004132  f :     0.022894
      f+1     :     0.004143
      f-1     :     0.005859
      f+2     :     0.002905
      f-2     :     0.002608
      f+3     :     0.001194
      f-3     :     0.002053
  3 C s       :     2.835565  s :     2.835565
      pz      :     1.074284  p :     3.181715
      px      :     1.065688
      py      :     1.041743
      dz2     :     0.042637  d :     0.218357
      dxz     :     0.034250
      dyz     :     0.046968
      dx2y2   :     0.041412
      dxy     :     0.053090
      f0      :     0.002334  f :     0.022815
      f+1     :     0.002773
      f-1     :     0.003719
      f+2     :     0.003751
      f-2     :     0.002019
      f+3     :     0.003069
      f-3     :     0.005150
  4 H s       :     0.804568  s :     0.804568
      pz      :     0.012305  p :     0.062760
      px      :     0.014536
      py      :     0.035919
  5 H s       :     0.798225  s :     0.798225
      pz      :     0.013954  p :     0.062498
      px      :     0.026796
      py      :     0.021748
  6 H s       :     0.790254  s :     0.790254
      pz      :     0.023379  p :     0.062645
      px      :     0.024907
      py      :     0.014358
  7 H s       :     0.805510  s :     0.805510
      pz      :     0.032655  p :     0.062560
      px      :     0.018010
      py      :     0.011895
  8 H s       :     0.790918  s :     0.790918
      pz      :     0.013646  p :     0.063296
      px      :     0.030158
      py      :     0.019492
  9 H s       :     0.786888  s :     0.786888
      pz      :     0.024462  p :     0.063307
      px      :     0.022002
      py      :     0.016844


                      *****************************
                      * MAYER POPULATION ANALYSIS *
                      *****************************

  NA   - Mulliken gross atomic population
  ZA   - Total nuclear charge
  QA   - Mulliken gross atomic charge
  VA   - Mayer's total valence
  BVA  - Mayer's bonded valence
  FA   - Mayer's free valence

  ATOM       NA         ZA         QA         VA         BVA        FA
  0 O      8.4133     8.0000    -0.4133     2.0174     2.0174    -0.0000
  1 C      5.8002     6.0000     0.1998     4.1003     4.1003    -0.0000
  2 C      6.3158     6.0000    -0.3158     3.7591     3.7591    -0.0000
  3 C      6.3106     6.0000    -0.3106     3.7844     3.7844    -0.0000
  4 H      0.8678     1.0000     0.1322     0.9969     0.9969     0.0000
  5 H      0.8704     1.0000     0.1296     0.9722     0.9722    -0.0000
  6 H      0.8563     1.0000     0.1437     0.9826     0.9826    -0.0000
  7 H      0.8821     1.0000     0.1179     1.0057     1.0057    -0.0000
  8 H      0.8436     1.0000     0.1564     0.9610     0.9610    -0.0000
  9 H      0.8398     1.0000     0.1602     0.9728     0.9728     0.0000

  Mayer bond orders larger than 0.100000
B(  0-O ,  1-C ) :   1.9870 B(  1-C ,  2-C ) :   1.0004 B(  1-C ,  3-C ) :   1.0254 
B(  2-C ,  4-H ) :   0.9590 B(  2-C ,  5-H ) :   0.9459 B(  2-C ,  6-H ) :   0.9394 
B(  3-C ,  7-H ) :   0.9550 B(  3-C ,  8-H ) :   0.9309 B(  3-C ,  9-H ) :   0.9312 


-------
TIMINGS
-------

Total SCF time: 0 days 0 hours 0 min 1 sec 

Total time                  ....       1.168 sec
Sum of individual times     ....       0.914 sec  ( 78.3%)

Fock matrix formation       ....       0.648 sec  ( 55.5%)
  XC integration            ....       0.065 sec  ( 10.0% of F)
    Basis function eval.    ....       0.009 sec  ( 14.6% of XC)
    Density eval.           ....       0.010 sec  ( 15.6% of XC)
    XC-Functional eval.     ....       0.002 sec  (  3.7% of XC)
    XC-Potential eval.      ....       0.017 sec  ( 27.0% of XC)
Diagonalization             ....       0.005 sec  (  0.5%)
Density matrix formation    ....       0.001 sec  (  0.1%)
Population analysis         ....       0.006 sec  (  0.5%)
Initial guess               ....       0.009 sec  (  0.7%)
Orbital Transformation      ....       0.000 sec  (  0.0%)
Orbital Orthonormalization  ....       0.005 sec  (  0.4%)
DIIS solution               ....       0.001 sec  (  0.1%)
SOSCF solution              ....       0.003 sec  (  0.3%)
Grid generation             ....       0.240 sec  ( 20.6%)

-------------------------   --------------------
FINAL SINGLE POINT ENERGY      -193.026188144741
-------------------------   --------------------


                            ***************************************
                            *     ORCA property calculations      *
                            ***************************************

                                    ---------------------
                                    Active property flags
                                    ---------------------
   (+) Dipole Moment


------------------------------------------------------------------------------
                       ORCA ELECTRIC PROPERTIES CALCULATION
------------------------------------------------------------------------------

Dipole Moment Calculation                       ... on
Quadrupole Moment Calculation                   ... off
Polarizability Calculation                      ... off
GBWName                                         ... temp.gbw
Electron density file                           ... temp.scfp
The origin for moment calculation is the CENTER OF MASS  = ( 4.683313, 21.064229 24.550183)

-------------
DIPOLE MOMENT
-------------
                                X             Y             Z
Electronic contribution:      0.60815      -2.55146       2.15756
Nuclear contribution   :     -0.76435       3.76842      -3.28980
                        -----------------------------------------
Total Dipole Moment    :     -0.15620       1.21696      -1.13224
                        -----------------------------------------
Magnitude (a.u.)       :      1.66954
Magnitude (Debye)      :      4.24362



--------------------
Rotational spectrum 
--------------------
 
Rotational constants in cm-1:     0.341603     0.286936     0.165457 
Rotational constants in MHz : 10240.986954  8602.113457  4960.286229 

 Dipole components along the rotational axes: 
x,y,z [a.u.] :     0.017961    -1.665774    -0.110548 
x,y,z [Debye]:     0.045653    -4.234062    -0.280991 

 

Timings for individual modules:

Sum of individual times         ...        2.717 sec (=   0.045 min)
GTO integral calculation        ...        0.965 sec (=   0.016 min)  35.5 %
SCF iterations                  ...        1.751 sec (=   0.029 min)  64.5 %
                             ****ORCA TERMINATED NORMALLY****
TOTAL RUN TIME: 0 days 0 hours 0 minutes 4 seconds 105 msec
