[Molden Format]
[Title]
 Molden file created by orca_2mkl for BaseName=temp

[Atoms] AU
O    1   8          5.0589744948        19.2249719762        26.1530953770 
C    2   6          4.7111798484        20.9228909075        24.6740917696 
C    3   6          3.6968032056        20.4471977067        22.0568380817 
C    4   6          5.2712682184        23.6330851062        25.3427297882 
H    5   1          3.1384533838        18.4776854457        21.8615500036 
H    6   1          2.0928773625        21.6861323957        21.6524669247 
H    7   1          5.1579224449        20.8860166815        20.6596577262 
H    8   1          6.1778133085        23.7329420145        27.1857173256 
H    9   1          3.5112869014        24.7174345283        25.3821759315 
H   10   1          6.4760045335        24.5047212854        23.9077756970 
[GTO]
  1 0
s   6 1.0 
    27032.3800000000         0.8598581393
     4052.3870000000         1.6055304059
      922.3272000000         2.7458780898
      261.2407000000         4.2987677378
       85.3546400000         5.8797670930
       31.0350400000         6.3163984679
s   2 1.0 
       12.2608600000         2.9812145398
        4.9987080000         0.9419560379
s   1 1.0 
        1.1703110000         0.8019292557
s   1 1.0 
        0.4647474000         0.4011647998
s   1 1.0 
        0.1850454000         0.2010799703
p   4 1.0 
       63.2749500000         3.0572013698
       14.6270500000         3.3844845670
        4.4501220000         2.9474258212
        1.5275800000         1.7118271901
p   1 1.0 
        0.5293512000         0.6436058239
p   1 1.0 
        0.1747842000         0.1610897108
d   1 1.0 
        2.3140000000        12.3767310624
d   1 1.0 
        0.6450000000         1.3234257612
f   1 1.0 
        1.4280000000        12.7097950062

  2 0
s   6 1.0 
    13575.3500000000         0.5435905009
     2035.2330000000         1.0145543008
      463.2256000000         1.7315731015
      131.2002000000         2.6910371555
       42.8530200000         3.6044547316
       15.5841900000         3.7025565440
s   2 1.0 
        6.2067140000         1.8383540114
        2.5764900000         0.5447576606
s   1 1.0 
        0.5769634000         0.4718145074
s   1 1.0 
        0.2297283000         0.2364944571
s   1 1.0 
        0.0951644400         0.1221141848
p   4 1.0 
       34.6972300000         1.3596652360
        7.9582620000         1.4512590746
        2.3780830000         1.2709231872
        0.8143321000         0.8025721831
p   1 1.0 
        0.2888755000         0.3018759228
p   1 1.0 
        0.1005682000         0.0807264648
d   1 1.0 
        1.0970000000         3.3522135855
d   1 1.0 
        0.3180000000         0.3838994974
f   1 1.0 
        0.7610000000         3.0840084332

  3 0
s   6 1.0 
    13575.3500000000         0.5435905009
     2035.2330000000         1.0145543008
      463.2256000000         1.7315731015
      131.2002000000         2.6910371555
       42.8530200000         3.6044547316
       15.5841900000         3.7025565440
s   2 1.0 
        6.2067140000         1.8383540114
        2.5764900000         0.5447576606
s   1 1.0 
        0.5769634000         0.4718145074
s   1 1.0 
        0.2297283000         0.2364944571
s   1 1.0 
        0.0951644400         0.1221141848
p   4 1.0 
       34.6972300000         1.3596652360
        7.9582620000         1.4512590746
        2.3780830000         1.2709231872
        0.8143321000         0.8025721831
p   1 1.0 
        0.2888755000         0.3018759228
p   1 1.0 
        0.1005682000         0.0807264648
d   1 1.0 
        1.0970000000         3.3522135855
d   1 1.0 
        0.3180000000         0.3838994974
f   1 1.0 
        0.7610000000         3.0840084332

  4 0
s   6 1.0 
    13575.3500000000         0.5435905009
     2035.2330000000         1.0145543008
      463.2256000000         1.7315731015
      131.2002000000         2.6910371555
       42.8530200000         3.6044547316
       15.5841900000         3.7025565440
s   2 1.0 
        6.2067140000         1.8383540114
        2.5764900000         0.5447576606
s   1 1.0 
        0.5769634000         0.4718145074
s   1 1.0 
        0.2297283000         0.2364944571
s   1 1.0 
        0.0951644400         0.1221141848
p   4 1.0 
       34.6972300000         1.3596652360
        7.9582620000         1.4512590746
        2.3780830000         1.2709231872
        0.8143321000         0.8025721831
p   1 1.0 
        0.2888755000         0.3018759228
p   1 1.0 
        0.1005682000         0.0807264648
d   1 1.0 
        1.0970000000         3.3522135855
d   1 1.0 
        0.3180000000         0.3838994974
f   1 1.0 
        0.7610000000         3.0840084332

  5 0
s   3 1.0 
       34.0613400000         0.2556298765
        5.1235750000         0.4613598729
        1.1646630000         0.6811216893
s   1 1.0 
        0.3272304000         0.3083545241
s   1 1.0 
        0.1030724000         0.1296483171
p   1 1.0 
        0.8000000000         1.0784563492

  6 0
s   3 1.0 
       34.0613400000         0.2556298765
        5.1235750000         0.4613598729
        1.1646630000         0.6811216893
s   1 1.0 
        0.3272304000         0.3083545241
s   1 1.0 
        0.1030724000         0.1296483171
p   1 1.0 
        0.8000000000         1.0784563492

  7 0
s   3 1.0 
       34.0613400000         0.2556298765
        5.1235750000         0.4613598729
        1.1646630000         0.6811216893
s   1 1.0 
        0.3272304000         0.3083545241
s   1 1.0 
        0.1030724000         0.1296483171
p   1 1.0 
        0.8000000000         1.0784563492

  8 0
s   3 1.0 
       34.0613400000         0.2556298765
        5.1235750000         0.4613598729
        1.1646630000         0.6811216893
s   1 1.0 
        0.3272304000         0.3083545241
s   1 1.0 
        0.1030724000         0.1296483171
p   1 1.0 
        0.8000000000         1.0784563492

  9 0
s   3 1.0 
       34.0613400000         0.2556298765
        5.1235750000         0.4613598729
        1.1646630000         0.6811216893
s   1 1.0 
        0.3272304000         0.3083545241
s   1 1.0 
        0.1030724000         0.1296483171
p   1 1.0 
        0.8000000000         1.0784563492

 10 0
s   3 1.0 
       34.0613400000         0.2556298765
        5.1235750000         0.4613598729
        1.1646630000         0.6811216893
s   1 1.0 
        0.3272304000         0.3083545241
s   1 1.0 
        0.1030724000         0.1296483171
p   1 1.0 
        0.8000000000         1.0784563492

[5D]
[7F]
[9G]
[MO]
 Sym=     1a
 Ene= -1.92122331671556E+01
 Spin= Alpha
 Occup= 2.000000
  1       0.435382398713
  2       0.639606841187
  3       0.034925740918
  4      -0.028857949643
  5       0.010098112640
  6      -0.000301013699
  7       0.001639642236
  8      -0.001320242976
  9       0.000940646672
 10      -0.004757344760
 11       0.004048931740
 12      -0.000061870345
 13       0.000402487163
 14      -0.000294116683
 15       0.000024728934
 16       0.000020691628
 17      -0.000292085133
 18      -0.000109431408
 19      -0.000081333159
 20      -0.000148835874
 21      -0.000191073990
 22       0.001329126925
 23       0.000631372486
 24       0.000333610169
 25      -0.000050450343
 26       0.000023419187
 27      -0.000087481954
 28      -0.000122317649
 29      -0.000052380581
 30       0.000033003461
 31      -0.000057791802
 32       0.000043220531
 33      -0.000259214547
 34       0.000762577942
 35       0.004351648302
 36      -0.001410397179
 37       0.000101384481
 38      -0.000486126420
 39       0.000425506720
 40       0.001298312010
 41      -0.006382797447
 42       0.005549652487
 43      -0.000826708641
 44       0.003712863165
 45      -0.003392329726
 46       0.000068484670
 47       0.000079890567
 48      -0.000286023578
 49      -0.000204115214
 50      -0.000066369549
 51       0.000369924636
 52       0.000382158555
 53      -0.004360093995
 54      -0.001593602186
 55      -0.001185605854
 56       0.000113822810
 57       0.000152111474
 58       0.000049053382
 59      -0.000002531066
 60      -0.000037716244
 61      -0.000040863854
 62      -0.000152962971
 63       0.000017375728
 64      -0.000083595319
 65       0.000348199912
 66       0.001148803010
 67      -0.002001234177
 68       0.000032142134
 69      -0.000034095887
 70       0.000189394591
 71       0.000637463370
 72       0.000509531831
 73       0.000566646295
 74      -0.000138270361
 75      -0.000844826415
 76      -0.000230112260
 77       0.000069570507
 78       0.000068451928
 79      -0.000007233160
 80      -0.000052420994
 81       0.000004950962
 82       0.000535855265
 83      -0.000192101912
 84      -0.000229019436
 85       0.001088233356
 86      -0.000384154120
 87       0.000102953149
 88       0.000006855190
 89      -0.000005179521
 90       0.000087058407
 91      -0.000043614339
 92      -0.000057394891
 93      -0.000014803946
 94       0.000017842023
 95      -0.000085827777
 96       0.000355787354
 97       0.001197919798
 98      -0.001723602204
 99       0.000011347487
100      -0.000197805417
101       0.000016191982
102      -0.000588414816
103      -0.000662961499
104      -0.000539734653
105       0.000271829761
106       0.000088496892
107       0.000792725703
108      -0.000001540487
109       0.000036659387
110      -0.000003557513
111      -0.000104258926
112       0.000022579343
113      -0.001029269893
114      -0.000825283777
115      -0.000052027464
116       0.000003742811
117      -0.000102721895
118       0.000023366998
119       0.000051614717
120       0.000120361321
121       0.000015844031
122       0.000071879820
123       0.000013789404
124      -0.000033163495
125       0.000126782349
126       0.001055404324
127      -0.000159162161
128       0.000100229927
129       0.000165620867
130       0.000072549569
131      -0.000000519254
132      -0.000487200923
133       0.000365206725
134      -0.000001944679
135       0.000148991068
136      -0.000116225292
137      -0.000060818564
138      -0.000880322222
139       0.000417101956
140       0.000049953811
141       0.000108039981
142      -0.000175414890
143       0.000131489493
144       0.001087345769
145      -0.000170986366
146      -0.000114393971
147      -0.000080763315
148      -0.000161766496
149      -0.000055170485
150      -0.000877693513
151       0.000399149618
152      -0.000101996359
153       0.000174101746
154      -0.000077234337
155      -0.000004748151
156      -0.000557838217
157       0.000352933198
158      -0.000043794835
159       0.000139537002
160      -0.000132912724
 Sym=     1a
 Ene= -1.03282711646737E+01
 Spin= Alpha
 Occup= 2.000000
  1       0.000084720006
  2       0.000357358756
  3      -0.003637012421
  4       0.014934546694
  5      -0.000091252480
  6       0.000104938909
  7      -0.000511457015
  8       0.000445344217
  9      -0.001327719235
 10       0.006471375884
 11      -0.005641977315
 12      -0.000028120228
 13       0.000134283229
 14      -0.000119710079
 15       0.000040329455
 16       0.000077102753
 17       0.000084129554
 18      -0.000075904445
 19       0.000053637399
 20       0.000243675204
 21       0.000215810373
 22      -0.002913615647
 23      -0.001106363244
 24      -0.000820187307
 25       0.000223538488
 26       0.000005421299
 27       0.000330451858
 28       0.000404338558
 29       0.000157089737
 30      -0.000139653775
 31       0.000104422578
 32      -0.467182932243
 33      -0.608418522836
 34      -0.038256272686
 35       0.023349166419
 36      -0.017960472515
 37      -0.000157001423
 38       0.000824382415
 39      -0.000654650757
 40      -0.002290519473
 41       0.010934371046
 42      -0.009704001917
 43       0.000961343172
 44      -0.004684381778
 45       0.004065573366
 46      -0.000501270600
 47      -0.000761718983
 48       0.001264424985
 49       0.001361273564
 50       0.000128571152
 51       0.000388140034
 52       0.001068076235
 53       0.007376605312
 54       0.000700531052
 55       0.002611632992
 56       0.000466929634
 57      -0.000254742597
 58       0.000881083318
 59       0.001202259923
 60       0.000526829383
 61      -0.000340286280
 62       0.000580161726
 63      -0.000604706410
 64      -0.000893676792
 65       0.000907890714
 66      -0.008460303400
 67       0.007736896501
 68      -0.000014402408
 69      -0.000101041790
 70      -0.000008103742
 71      -0.001669286702
 72       0.000311643777
 73      -0.004583944081
 74       0.000663208924
 75       0.000879994580
 76       0.002485788343
 77       0.000100690198
 78       0.000050961515
 79      -0.000017903102
 80       0.000031814008
 81      -0.000000323148
 82      -0.000704923799
 83      -0.000230344039
 84       0.000752379579
 85      -0.000314375336
 86       0.000295442965
 87       0.000422599424
 88       0.000470155212
 89       0.000361144856
 90       0.000244763279
 91       0.000235327625
 92       0.000051178434
 93       0.000056465914
 94      -0.000562912036
 95      -0.000840612799
 96       0.000891064049
 97      -0.008267988041
 98       0.007738312292
 99       0.000035578947
100      -0.000000121133
101       0.000096544457
102       0.000582215299
103       0.004724558397
104       0.000049217258
105      -0.000395510205
106      -0.002470618440
107      -0.001070736228
108      -0.000078256608
109      -0.000006301952
110       0.000004620491
111      -0.000091246610
112       0.000017099008
113       0.000650380411
114       0.000266901175
115       0.000616410953
116       0.000607356934
117       0.000127046542
118       0.000305389376
119      -0.000049143086
120       0.000348286581
121       0.000415465208
122      -0.000080342725
123      -0.000362399120
124      -0.000352094154
125      -0.000007198958
126       0.000234286192
127      -0.000421798097
128       0.000089101605
129      -0.000058473320
130       0.000350465347
131      -0.000023858251
132       0.000467897294
133      -0.000123286346
134       0.000024951455
135       0.000054114115
136       0.000243327577
137       0.000035327811
138       0.000512627522
139       0.000380333917
140       0.000133860332
141       0.000032280376
142       0.000213724492
143      -0.000004517418
144       0.000236193819
145      -0.000427086743
146      -0.000007061775
147      -0.000362438219
148       0.000022116861
149       0.000030304522
150       0.000495097779
151       0.000346549512
152      -0.000095272163
153      -0.000228344146
154      -0.000037918381
155      -0.000017836254
156       0.000467334045
157      -0.000071330206
158       0.000010733523
159      -0.000232055796
160      -0.000083811471
 Sym=     1a
 Ene= -1.02282343329583E+01
 Spin= Alpha
 Occup= 2.000000
  1       0.000004693684
  2      -0.000054418214
  3       0.000620699010
  4      -0.002613926407
  5       0.000705614076
  6      -0.000065172455
  7      -0.000029743563
  8      -0.000144939988
  9       0.000471216255
 10       0.000003357301
 11       0.001184149102
 12      -0.000166290271
 13      -0.000595990119
 14      -0.000071368358
 15       0.000033094837
 16       0.000004391819
 17      -0.000022736247
 18       0.000028037471
 19      -0.000015094943
 20      -0.000277994320
 21      -0.000101482277
 22       0.000080853272
 23      -0.000170780880
 24       0.000063979101
 25       0.000031579770
 26       0.000000614198
 27       0.000036660854
 28       0.000042384666
 29      -0.000002442006
 30      -0.000031751892
 31      -0.000025683649
 32      -0.000674725617
 33      -0.000787418443
 34      -0.000006463491
 35       0.002757263084
 36      -0.009396752582
 37      -0.000187180857
 38      -0.000247546596
 39      -0.000450047119
 40       0.001701499584
 41       0.002151317935
 42       0.003954856533
 43       0.002032699223
 44       0.003905406450
 45       0.004527748563
 46      -0.000099371604
 47      -0.000107653539
 48       0.000012726468
 49       0.000080654071
 50      -0.000022247149
 51      -0.003090146380
 52      -0.001458819116
 53      -0.001601996622
 54      -0.002404025636
 55      -0.000052084981
 56       0.000478093536
 57       0.000719531221
 58       0.000282349368
 59       0.000040105105
 60       0.000238526279
 61       0.000090545787
 62      -0.000033648605
 63       0.467082077936
 64       0.608679070282
 65       0.034421947679
 66      -0.014121267551
 67       0.032489841221
 68       0.000158571498
 69       0.000206041747
 70       0.000316531288
 71       0.000297427672
 72      -0.000060011323
 73       0.000572850928
 74       0.001707204343
 75       0.001596658080
 76       0.002808020774
 77       0.000010279037
 78       0.000052277853
 79      -0.000030135823
 80      -0.000070370697
 81       0.000016576828
 82       0.000072307857
 83      -0.000192898306
 84      -0.000177154724
 85       0.000450592947
 86      -0.000227128969
 87       0.000665444492
 88       0.000910337033
 89       0.000352827102
 90      -0.000219596504
 91      -0.000076700386
 92      -0.000768308245
 93      -0.000976992644
 94      -0.000331126748
 95      -0.000423757475
 96       0.000474774448
 97      -0.003635749825
 98      -0.003906705732
 99      -0.000028744430
100      -0.000060960661
101      -0.000099936128
102       0.001060109533
103       0.002592384477
104       0.001991000784
105       0.001240493084
106       0.001052508991
107       0.001753128498
108       0.000001915845
109      -0.000043365237
110      -0.000002262859
111       0.000053457529
112      -0.000022818191
113       0.000507443526
114       0.000156228692
115      -0.001159620800
116       0.000443952874
117      -0.000447398602
118      -0.000073171204
119       0.000017706785
120       0.000043909336
121      -0.000074660441
122       0.000071481603
123       0.000041220914
124       0.000057435311
125      -0.000455434807
126      -0.001841604018
127      -0.003767491258
128      -0.000496144203
129      -0.001822135604
130      -0.000144297078
131      -0.000434201222
132      -0.002597173144
133      -0.004959086999
134      -0.001512213471
135       0.001195880886
136      -0.000461636977
137      -0.000432292303
138      -0.002741257356
139      -0.005332628280
140       0.001343658588
141       0.000429977130
142      -0.001397686696
143      -0.000071772199
144      -0.000855617438
145      -0.001039239418
146       0.000069747144
147       0.000098751502
148       0.000141272450
149       0.000030514667
150       0.000386060215
151       0.000769437765
152       0.000003225755
153      -0.000079437748
154       0.000034333974
155       0.000028424141
156       0.000252585470
157       0.000143308414
158       0.000065212650
159      -0.000073142744
160       0.000036195137
 Sym=     1a
 Ene= -1.02212095883609E+01
 Spin= Alpha
 Occup= 2.000000
  1      -0.000004697526
  2       0.000055158306
  3      -0.000626990898
  4       0.002626015831
  5      -0.000730836642
  6      -0.000039123530
  7      -0.000152881671
  8      -0.000040066325
  9       0.000211780286
 10       0.001257401119
 11       0.000104112757
 12      -0.000259080837
 13      -0.000053425248
 14      -0.000565636821
 15       0.000038022759
 16       0.000022602734
 17       0.000014605759
 18       0.000021417970
 19       0.000004405290
 20      -0.000266029841
 21      -0.000111424394
 22      -0.000019957740
 23      -0.000210378105
 24       0.000025420622
 25      -0.000040237553
 26      -0.000038531585
 27      -0.000037451476
 28      -0.000029986901
 29      -0.000022366628
 30       0.000003210163
 31      -0.000003341779
 32       0.000634091756
 33       0.000733735720
 34       0.000036850274
 35      -0.002941468302
 36       0.009408070050
 37      -0.000146102925
 38      -0.000450194182
 39      -0.000274416087
 40       0.001325369005
 41       0.003894764496
 42       0.002385455776
 43       0.001899531959
 44       0.004419121680
 45       0.004116355610
 46       0.000003504405
 47       0.000068291946
 48      -0.000002158436
 49      -0.000148905658
 50       0.000036738671
 51      -0.002991529681
 52      -0.001084328146
 53       0.002190842167
 54      -0.001872176668
 55       0.001222708833
 56      -0.000271937256
 57      -0.000009017189
 58      -0.000288521717
 59      -0.000328351211
 60       0.000263565276
 61       0.000418734400
 62       0.000617692950
 63      -0.000330769250
 64      -0.000438633139
 65      -0.000538535309
 66       0.003734775215
 67       0.003889165478
 68      -0.000026210678
 69      -0.000096864015
 70      -0.000070825988
 71       0.001266433928
 72       0.001876823719
 73       0.002647961093
 74       0.001125276326
 75       0.001845512125
 76       0.001039351258
 77       0.000035786126
 78       0.000048550143
 79      -0.000002335945
 80      -0.000032420712
 81       0.000024976645
 82       0.000755552621
 83       0.000401939871
 84       0.001048062250
 85       0.000452608221
 86       0.000187208350
 87       0.000025738270
 88       0.000062723934
 89       0.000098117766
 90      -0.000050769357
 91       0.000069496496
 92       0.000045214397
 93      -0.000018412165
 94      -0.467081334730
 95      -0.608676209438
 96      -0.034457398796
 97       0.014224835675
 98      -0.032490293721
 99       0.000192672640
100       0.000359439791
101       0.000195647155
102       0.000087618214
103       0.000510873782
104      -0.000006762441
105       0.001436119124
106       0.002930546526
107       0.001679106102
108      -0.000033334718
109      -0.000060336176
110       0.000033623858
111       0.000061295511
112      -0.000012538508
113       0.000328681443
114       0.000408504175
115       0.000157371156
116      -0.000179051554
117       0.000133914458
118      -0.000504143281
119      -0.001281278677
120      -0.000306683658
121      -0.000196558453
122       0.000383027546
123       0.000118939211
124       0.000892691258
125       0.000071734261
126       0.000848813093
127       0.001043963012
128       0.000065690480
129       0.000141429039
130       0.000101849978
131      -0.000024360461
132      -0.000211160199
133      -0.000139210713
134       0.000048536617
135       0.000052541610
136      -0.000075330381
137      -0.000031518181
138      -0.000413878159
139      -0.000760358260
140      -0.000017709588
141       0.000038282531
142      -0.000076828917
143       0.000456818067
144       0.001830173815
145       0.003750700487
146      -0.000827154809
147      -0.000048660369
148      -0.001701772255
149       0.000433764555
150       0.002746123117
151       0.005343332774
152       0.001653219397
153      -0.001112621053
154      -0.000025294195
155       0.000437045240
156       0.002637671031
157       0.004951379598
158      -0.001112846213
159      -0.000902932232
160       0.001364672812
 Sym=     1a
 Ene= -1.09638204499867E+00
 Spin= Alpha
 Occup= 2.000000
  1      -0.088885891724
  2      -0.209442072031
  3       0.300847828557
  4       0.394666325274
  5       0.125909972709
  6      -0.017497702996
  7       0.088321599421
  8      -0.074461566677
  9      -0.013392334682
 10       0.068486496695
 11      -0.056819578902
 12      -0.000734151361
 13       0.009605946064
 14      -0.001882295246
 15       0.000644352740
 16       0.000862751279
 17      -0.005967329520
 18      -0.002779988439
 19      -0.001552617294
 20       0.001869691563
 21       0.000663486347
 22      -0.013325539437
 23      -0.005417262362
 24      -0.003873931424
 25       0.001133463131
 26      -0.000198923329
 27       0.001623483063
 28       0.001976919974
 29       0.000745758528
 30      -0.000706816168
 31       0.000664642040
 32      -0.057056980285
 33      -0.120192166869
 34       0.186396584993
 35       0.145461366515
 36       0.022148545491
 37       0.020628918147
 38      -0.100904828428
 39       0.088012505073
 40       0.005978515026
 41      -0.026715077998
 42       0.024876463668
 43      -0.000370227866
 44      -0.004394808100
 45      -0.003651465445
 46       0.003092480823
 47       0.003998947179
 48      -0.016162427602
 49      -0.009709575966
 50      -0.003514726222
 51       0.001665457237
 52       0.004306154440
 53      -0.001464851157
 54      -0.007426597890
 55       0.001051939912
 56      -0.003736533845
 57      -0.000942470001
 58      -0.004901646112
 59      -0.005562013667
 60      -0.001946017914
 61       0.002173000433
 62      -0.000441087009
 63      -0.008313848291
 64      -0.017217178010
 65       0.025856836746
 66       0.015996711210
 67      -0.015216887793
 68       0.005469779047
 69      -0.001952114132
 70       0.015444209864
 71       0.001134724759
 72      -0.002698059354
 73       0.004079889421
 74      -0.001721047813
 75       0.000715319646
 76      -0.002567119812
 77       0.001000344104
 78       0.000634589688
 79      -0.000642224115
 80       0.000091061437
 81      -0.000200436660
 82       0.000323485691
 83      -0.000070825429
 84      -0.001235171466
 85      -0.000307240243
 86      -0.000347720686
 87       0.000162373332
 88       0.000407722186
 89      -0.000707976699
 90      -0.000330749182
 91      -0.000311715431
 92       0.000064520559
 93      -0.000007648102
 94      -0.008212541959
 95      -0.017002295220
 96       0.025970204408
 97       0.012577365163
 98      -0.005295066873
 99      -0.001822149342
100      -0.016355212520
101       0.000608199587
102       0.001087494392
103      -0.002415130921
104       0.002666271059
105      -0.001443182679
106       0.000778534511
107       0.000060142153
108      -0.000632291381
109      -0.000041665623
110      -0.000498939935
111      -0.001095896666
112       0.000039168190
113       0.000209619556
114      -0.000420443683
115      -0.001821135056
116       0.000169152847
117      -0.000515475688
118      -0.000538294485
119      -0.000003265146
120       0.000060963968
121      -0.000658816947
122      -0.000114537028
123       0.000118426025
124      -0.000569449208
125       0.004986804771
126       0.004708188629
127       0.003155858668
128       0.000485033237
129       0.000890074541
130       0.000642718216
131       0.002726292405
132       0.003330613965
133       0.001245887988
134       0.000511793297
135      -0.000333042501
136       0.000554807021
137       0.002971237715
138       0.003775437594
139       0.001817284248
140      -0.000094578612
141      -0.000129749831
142       0.000957459819
143       0.004961191425
144       0.004882854798
145       0.002309303971
146      -0.000520453712
147      -0.000665310779
148      -0.000900843931
149       0.002937502492
150       0.003558047575
151       0.000247225415
152       0.000328683130
153      -0.000948217598
154      -0.000065306060
155       0.002602577731
156       0.002682356871
157       0.001753569274
158      -0.000285473855
159      -0.000673259741
160       0.000221349085
 Sym=     1a
 Ene= -7.99607514045608E-01
 Spin= Alpha
 Occup= 2.000000
  1      -0.030316386190
  2      -0.072167516202
  3       0.109412397978
  4       0.140457981482
  5       0.075188395354
  6       0.001691508654
  7      -0.003130546308
  8       0.006260387908
  9       0.001763393361
 10      -0.003341587257
 11       0.006067799124
 12       0.001711597419
 13      -0.001769252295
 14       0.007689696947
 15      -0.000140355515
 16      -0.000138759181
 17      -0.000555248344
 18      -0.000007100300
 19      -0.000206600818
 20      -0.000099683337
 21      -0.000929680789
 22      -0.000184780886
 23       0.000493957664
 24      -0.000293262874
 25       0.000231075667
 26       0.000105257023
 27       0.000053391124
 28       0.000076457105
 29      -0.000054099611
 30      -0.000075927407
 31      -0.000088292135
 32       0.044955138639
 33       0.096098277887
 34      -0.151665685954
 35      -0.156652628050
 36      -0.032542799826
 37       0.022025116396
 38      -0.094385746914
 39       0.089065210853
 40       0.014490883342
 41      -0.053591175911
 42       0.055645537357
 43      -0.002501699515
 44      -0.016234709217
 45       0.000185505558
 46      -0.001342735849
 47      -0.002687258175
 48      -0.007938757110
 49       0.001149121163
 50      -0.003254699169
 51      -0.003640514394
 52      -0.003867290286
 53      -0.007371340885
 54       0.000133647793
 55      -0.002810462714
 56       0.001314134117
 57       0.001857203355
 58       0.000593445150
 59       0.000009974634
 60      -0.000311313077
 61      -0.000469825734
 62      -0.001598737108
 63       0.061522846611
 64       0.130944358903
 65      -0.196765958709
 66      -0.225932471209
 67      -0.023528188937
 68      -0.014081666015
 69      -0.021437356162
 70      -0.030340997648
 71      -0.013003339906
 72      -0.018939800201
 73      -0.025084883980
 74       0.000243358130
 75      -0.003541211000
 76      -0.006303341124
 77      -0.002148999055
 78      -0.001901908144
 79      -0.002067480267
 80       0.000032476855
 81      -0.000771585877
 82      -0.003574334901
 83      -0.002893936132
 84      -0.005348154546
 85      -0.001486854456
 86      -0.002080263832
 87      -0.001814075183
 88      -0.002822778843
 89      -0.002101333609
 90       0.000376557083
 91      -0.000803345643
 92       0.001298671901
 93       0.002017433437
 94       0.055793334606
 95       0.118686151706
 96      -0.176964619272
 97      -0.210982264570
 98       0.001208352294
 99       0.013484638857
100       0.029727580845
101       0.022543697175
102       0.012867505103
103       0.028657632799
104       0.021315962501
105       0.005704493371
106      -0.003792204875
107       0.005414556381
108       0.000783717901
109      -0.000679014118
110      -0.002452968509
111       0.002064205594
112      -0.001436399244
113       0.002563476504
114      -0.000812011779
115      -0.006894601251
116       0.004405457973
117      -0.003909880725
118      -0.001996758122
119      -0.002232523421
120      -0.000595650427