ITEM: TIMESTEP
798500
ITEM: NUMBER OF ATOMS
658
ITEM: BOX BOUNDS pp pp pp
-4.0071915192161545e-01 1.8400719151921496e+01
-4.0071915192161545e-01 1.8400719151921496e+01
-4.0071915192161545e-01 1.8400719151921496e+01
ITEM: ATOMS id mol type x y z ix iy iz
402 132 77 4.09768 4.55145 0.566153 1 0 0
649 214 77 -0.0633336 3.80338 0.35463 0 0 0
647 214 76 0.837639 3.27817 0.478174 0 0 0
390 128 77 4.84336 2.27511 0.279333 1 1 0
315 103 77 4.20187 0.120388 -0.0787761 0 1 1
403 132 77 2.75006 5.36649 0.812181 1 0 0
401 132 76 3.7028 5.48069 0.545342 1 0 0
8 1 85 2.02838 7.73976 0.669782 0 0 1
389 128 76 5.00382 3.04612 0.94537 1 1 0
215 70 76 10.3061 7.60407 -0.253552 0 0 1
229 74 77 9.98901 3.12241 -0.378722 0 0 1
346 113 77 8.95871 7.57784 0.771131 0 0 1
247 80 77 7.76032 2.55139 0.792014 0 0 0
217 70 77 11.3004 7.41361 -0.0661729 0 0 1
637 210 77 16.0045 1.67617 0.658602 0 1 0
417 137 77 17.3381 5.69821 0.860919 -1 0 1
416 137 76 17.6802 4.94004 0.261422 -1 0 1
463 152 77 12.5503 4.20087 0.189196 -1 1 0
427 140 77 14.8825 3.91032 0.103603 -1 0 0
494 163 76 12.7597 0.423877 -0.111308 0 1 0
461 152 76 13.3562 4.65574 0.641463 -1 1 0
462 152 77 13.2752 5.62065 0.347743 -1 1 0
635 210 76 16.5182 0.812734 0.835516 0 1 0
418 137 77 16.9707 4.47561 -0.274736 -1 0 1
425 140 76 15.2998 3.06096 -0.271128 -1 0 0
88 27 77 14.0782 7.67043 -0.21543 0 0 1
235 76 77 17.6471 0.340148 -0.387389 0 0 1
331 108 77 4.80783 6.45212 1.61225 0 0 0
329 108 76 5.4331 7.02796 2.22311 0 0 0
9 1 85 0.463287 7.23668 1.22253 0 0 1
648 214 77 0.904588 3.0279 1.40483 0 0 0
10 1 85 1.59182 7.67216 2.37912 0 0 1
4 1 80 1.2319 7.91451 1.40587 0 0 1
568 187 77 3.80301 -0.0557495 2.32902 0 1 0
345 113 77 8.39188 6.58147 1.94414 0 0 1
391 128 77 5.91743 3.02963 1.37773 1 1 0
288 94 77 11.0387 1.9453 1.20755 0 0 0
245 80 76 7.61646 2.8776 1.75363 0 0 0
344 113 76 8.21038 7.49381 1.49449 0 0 1
246 80 77 8.57175 3.21496 1.90107 0 0 0
85 26 77 9.9222 -0.297885 1.23094 0 1 0
287 94 76 10.4793 1.8965 2.05215 0 0 0
330 108 77 6.37985 7.093 1.8691 0 0 0
542 179 76 13.3108 2.12336 1.85909 0 1 0
636 210 77 16.9313 0.907282 1.78371 0 1 0
544 179 77 13.7754 2.85055 1.3004 0 1 0
602 199 76 16.1704 6.67187 1.85391 0 0 0
352 115 77 12.2727 4.25601 2.44791 0 0 0
543 179 77 12.9185 1.47538 1.20796 0 1 0
604 199 77 16.0649 7.34248 1.05672 0 0 0
110 35 76 0.649362 2.20727 2.86775 0 0 0
339 111 77 4.33 1.96987 2.79013 1 0 0
338 111 76 3.71551 1.34939 3.37812 1 0 0
111 35 77 -0.370921 2.19108 3.01018 0 0 0
295 96 77 5.48037 8.21603 3.55959 1 0 0
112 35 77 0.964652 1.22085 2.95015 0 0 0
34 9 77 9.67676 1.30397 3.57262 0 0 0
475 156 77 6.97153 2.54296 3.27191 0 0 0
652 215 77 10.1885 5.18224 3.23259 0 0 0
490 161 77 8.85108 8.66928 3.32825 0 0 1
350 115 76 11.5739 4.20533 3.19112 0 0 0
650 215 76 9.32792 5.7247 3.30612 0 0 0
289 94 77 10.823 2.686 2.59769 0 0 0
358 117 77 16.2745 0.958305 3.71364 0 0 0
46 13 77 18.1379 8.77908 3.78361 -1 0 0
356 117 76 16.983 1.63791 3.3134 0 0 0
274 89 77 15.631 5.11483 2.90418 0 0 1
136 43 77 14.1068 1.31837 3.73745 0 1 0
357 117 77 16.5035 2.5737 3.22758 0 0 0
603 199 77 16.4526 7.22628 2.64896 0 0 0
272 89 76 15.8482 4.20916 3.43189 0 0 1
439 144 77 2.55426 0.147715 4.32803 0 0 0
96 30 77 1.57751 2.97333 4.17945 0 0 0
191 62 76 5.25986 5.17096 5.12085 0 0 0
606 200 77 2.53397 7.52211 4.74846 0 0 0
340 111 77 3.7855 1.65635 4.35116 1 0 0
605 200 76 2.66279 6.55697 4.55507 0 0 0
607 200 77 1.85562 6.04975 4.81626 0 0 0
437 144 76 1.86648 -0.137665 4.94593 0 0 0
438 144 77 1.0205 -0.249271 4.45296 0 0 0
193 62 77 4.45056 5.57578 4.70106 0 0 0
95 30 76 1.88086 3.59482 4.92063 0 0 0
97 30 77 1.15845 4.26391 4.9399 0 0 0
33 9 77 8.6087 0.169718 3.99005 0 0 0
32 9 76 9.23441 0.824671 4.38167 0 0 0
474 156 77 6.1403 3.71596 4.06225 0 0 0
473 156 76 6.39845 2.696 4.10807 0 0 0
351 115 77 12.0523 4.67635 3.9508 0 0 0
651 215 77 8.90151 5.35631 4.1089 0 0 0
589 194 77 7.85532 3.47397 5.26621 0 0 0
587 194 76 8.45378 4.29484 5.28432 0 0 0
45 13 77 17.234 8.11938 4.97778 -1 0 0
224 73 76 18.3461 5.44397 5.07748 0 0 0
44 13 76 17.2226 8.38573 4.01236 -1 0 0
273 89 77 15.0979 3.99704 4.0661 0 0 1
135 43 77 14.4251 1.28834 5.25084 0 1 0
134 43 76 14.6467 0.788516 4.38786 0 1 0
226 73 77 17.6367 5.16176 4.42627 0 0 0
51 15 77 15.2195 8.97373 3.98663 0 0 0
540 178 77 4.42864 3.37731 6.61957 0 0 0
192 62 77 5.69125 5.93608 5.53455 0 0 0
541 178 77 2.8756 3.60033 6.30545 0 0 0
120 38 77 2.65768 8.9481 6.42421 1 0 0
535 176 77 0.54103 0.835337 6.79628 1 1 1
196 63 77 5.67794 8.96659 5.90817 0 0 0
140 45 76 5.83663 0.861666 6.36379 1 1 0
142 45 77 5.54414 0.0709063 5.81389 1 1 0
504 166 77 11.4714 3.07629 6.57172 0 0 0
503 166 76 10.8415 3.86053 6.44606 0 0 0
141 45 77 6.34977 1.39787 5.68427 1 1 0
505 166 77 11.4946 4.59561 6.02771 0 0 0
588 194 77 9.38251 4.0469 5.61405 0 0 0
382 125 77 9.49035 0.606211 6.1902 0 1 0
328 107 77 11.8209 6.60766 5.99166 0 0 0
633 209 77 7.64573 5.71384 6.2426 0 0 0
608 201 76 11.3481 8.19323 6.78602 -2 -4 3
256 83 77 11.6465 1.39125 6.73686 0 0 0
548 181 76 16.6864 2.90442 6.20289 0 1 0
206 67 76 14.8675 4.78952 6.29373 0 1 0
124 39 77 15.9883 6.83217 6.40022 0 0 0
207 67 77 15.5082 3.99439 6.19671 0 1 0
549 181 77 17.4623 2.68075 5.63379 0 1 0
122 39 76 16.8662 7.34022 6.51195 0 0 0
326 107 76 12.2409 5.87571 5.4086 0 0 0
327 107 77 13.2655 5.80396 5.55894 0 0 0
225 73 77 17.9354 5.97009 5.90173 0 0 0
254 83 76 12.5577 1.75749 6.8133 0 0 0
430 141 77 2.56836 1.63619 7.52763 0 0 0
66 20 77 4.16227 8.90875 7.86952 1 0 0
539 178 76 3.51591 3.31936 7.03904 0 0 0
184 59 77 2.94228 5.143 7.60825 0 0 0
429 141 77 2.71489 0.0772353 7.11434 0 0 0
428 141 76 2.51997 0.681952 7.87547 0 0 0
182 59 76 2.77939 6.05349 8.0308 0 0 0
533 176 76 -0.340174 0.554988 7.20834 1 1 1
67 20 77 3.17308 7.64912 8.20155 1 0 0
65 20 76 3.24709 8.66534 8.22429 1 0 0
194 63 76 5.79422 8.72231 6.90933 0 0 0
514 169 77 6.30221 0.760434 7.87394 0 0 0
195 63 77 6.36641 7.91425 6.86 0 0 0
381 125 77 9.63513 0.227245 7.80165 0 1 0
610 201 77 10.5064 8.69606 6.91785 -2 -4 3
632 209 76 7.16477 6.15688 6.97519 0 0 0
380 125 76 10.1233 0.590179 6.96 0 1 0
609 201 77 11.7586 8.02609 7.71765 -2 -4 3
634 209 77 7.21529 5.39779 7.70993 0 0 0
73 22 77 10.3857 3.75021 8.07727 0 0 0
255 83 77 12.9709 1.24499 7.56242 0 0 0
208 67 77 14.7152 4.73238 7.36063 0 1 0
123 39 77 17.1808 7.16511 7.46821 0 0 0
550 181 77 16.7405 2.26205 6.98104 0 1 0
117 37 77 0.817529 4.11218 9.40471 0 0 0
183 59 77 2.14489 5.86442 8.82871 0 0 0
450 148 77 -0.196571 1.85217 8.39095 1 1 0
449 148 76 -0.165439 2.65616 9.0471 1 1 0
528 174 77 -0.0682072 6.2386 9.36068 0 0 0
366 120 77 4.62514 0.42591 9.61549 0 1 0
319 104 77 1.95242 1.47096 9.70748 1 0 0
512 169 76 6.57951 0.969978 8.8728 0 0 0
92 29 76 7.68343 3.62647 8.50906 0 0 0
513 169 77 7.4426 0.431112 9.00031 0 0 0
71 22 76 10.4837 4.06748 9.01055 0 0 0
93 29 77 8.50838 3.39907 8.98947 0 0 0
94 29 77 7.08239 2.82321 8.53627 0 0 0
72 22 77 10.0455 5.01254 9.04138 0 0 0
564 186 77 9.04128 7.20025 9.22155 0 0 0
563 186 76 9.20863 6.36013 9.71934 0 0 0
179 58 76 14.3905 4.76321 9.29361 0 0 0
162 52 77 15.2385 2.96846 9.03095 0 1 0
451 148 77 17.781 3.13104 8.96984 0 1 0
161 52 76 15.7272 2.07347 8.88409 0 1 0
527 174 76 17.8797 6.65177 9.09236 -1 0 0
320 105 76 12.8523 7.75146 9.08413 0 0 0
163 52 77 14.9428 1.4296 8.67749 0 1 0
27 7 77 12.6396 1.20879 9.54699 0 1 0
26 7 76 13.3896 0.525269 9.33855 0 1 0
501 165 77 14.1457 8.88022 8.57622 0 0 0
322 105 77 13.1052 6.98111 9.68545 0 0 0
318 104 77 2.63373 1.03328 11.1263 1 0 0
367 120 77 4.82231 -0.266073 11.0106 0 1 0
508 167 77 5.05198 6.9577 9.85337 1 0 0
317 104 76 1.78901 1.45063 10.7027 1 0 0
365 120 76 4.26992 0.415724 10.5087 0 1 0
118 37 77 1.23423 4.95239 10.7234 0 0 0
116 37 76 1.11212 5.06371 9.73376 0 0 0
506 167 76 5.17742 7.20542 10.8493 1 0 0
507 167 77 4.72121 8.09834 10.9564 1 0 0
645 213 77 0.352596 0.30802 10.9031 1 0 0
484 159 77 6.25558 1.70714 10.6082 0 1 0
487 160 77 6.3134 5.82532 10.7296 0 0 0
486 160 77 7.82057 5.21632 10.4323 0 0 0
599 198 76 11.1922 1.88603 10.5723 0 1 0
600 198 77 10.3474 1.48392 10.9708 0 1 0
601 198 77 10.8639 2.78212 10.1108 0 1 0
565 186 77 9.46863 6.58912 10.673 0 0 0
485 160 76 6.91816 5.01451 10.8405 0 0 0
657 217 77 11.489 5.70342 10.5889 0 0 0
644 213 76 18.1788 0.0430381 11.12 0 0 0
529 174 77 17.2748 6.45993 9.86755 -1 0 0
321 105 77 12.4633 8.34673 9.77145 0 0 0
181 58 77 15.1076 4.97347 9.96489 0 0 0
646 213 77 17.5699 0.699002 10.6368 0 0 0
441 145 77 17.635 8.78584 9.79224 0 0 0
180 58 77 13.4888 4.9304 9.77213 0 0 0
656 217 76 12.3878 5.61935 11.0441 0 0 0
28 7 77 13.174 -0.318764 9.82531 0 1 0
590 195 76 -0.0467426 7.78513 12.5893 1 0 0
276 90 77 0.724215 2.10576 11.8242 0 1 0
592 195 77 -0.360684 8.31773 11.7813 1 0 0
275 90 76 0.263697 2.66276 12.5704 0 1 0
623 206 76 1.32254 5.30035 12.4906 0 0 0
624 206 77 0.801279 6.20386 12.4228 0 0 0
348 114 77 6.51353 7.30141 12.1784 0 0 0
368 121 76 9.83565 6.51509 12.4556 0 0 0
482 159 76 6.57387 2.14744 11.451 0 1 0
75 23 77 8.04958 1.3129 12.118 0 0 0
74 23 76 9.05037 1.0649 12.2234 0 0 0
369 121 77 10.3953 7.35107 12.337 0 0 0
483 159 77 6.79536 3.14387 11.2036 0 1 0
526 173 77 16.4789 5.01258 11.7811 0 0 0
524 173 76 16.2265 5.80756 11.1767 0 0 0
626 207 76 15.3428 8.29206 12.0962 0 0 0
525 173 77 15.873 6.48527 11.7645 0 0 0
114 36 77 12.3836 2.80546 11.7116 0 1 0
658 217 77 12.4983 4.82431 11.7154 0 0 0
198 64 77 16.5959 -0.296459 12.5943 0 1 0
113 36 76 12.8002 3.40309 12.4137 0 1 0
421 138 77 17.3559 2.6828 12.5762 0 1 0
419 138 76 16.3298 2.7493 12.5336 0 1 0
266 87 76 5.55493 0.990037 13.5648 0 1 1
625 206 77 2.14658 5.5831 12.9987 0 0 0
394 129 77 4.99228 4.62273 13.5341 1 1 -1
63 19 77 1.19194 8.853 13.5992 1 0 0
267 87 77 4.68162 1.53957 13.8249 0 1 1
277 90 77 0.901271 3.50931 12.7024 0 1 0
370 121 77 8.93098 6.88697 12.7029 0 0 0
268 87 77 6.0558 1.52062 12.7628 0 1 1
76 23 77 9.3308 1.17192 13.1919 0 0 0
392 129 76 5.97749 4.61237 13.8062 1 1 -1
103 32 77 11.304 3.9215 13.1568 0 0 0
102 32 77 10.142 5.06485 13.325 0 0 0
393 129 77 6.54485 4.66517 13.0126 1 1 -1
101 32 76 10.4969 4.18623 13.679 0 0 0
349 114 77 7.15208 7.92553 13.556 0 0 0
347 114 76 7.4226 7.44413 12.6757 0 0 0
197 64 76 16.2434 -0.0922431 13.4751 0 1 0
262 85 77 14.09 4.58086 13.2347 0 0 0
261 85 77 15.6217 4.25567 13.5129 0 0 0
420 138 77 16 1.80333 12.7396 0 1 0
260 85 76 14.9379 5.0177 13.5682 0 0 0
627 207 77 15.8719 8.42061 12.9433 0 0 0
591 195 77 18.1411 8.14796 13.312 0 0 0
115 36 77 13.0187 2.72597 13.1425 0 1 0
361 118 77 14.556 1.04483 13.8909 0 0 0
220 71 77 2.32116 6.63003 15.3281 0 0 0
218 71 76 2.88842 5.87159 14.914 0 0 0
354 116 77 1.20247 4.94682 15.3428 0 0 0
334 109 77 -0.104688 0.888733 15.0195 1 0 0
170 55 76 3.19432 1.83516 14.7488 0 0 -1
333 109 77 -0.236579 2.30176 14.2347 1 0 0
332 109 76 -0.208223 1.88291 15.1525 1 0 0
171 55 77 2.74032 0.93872 14.6341 0 0 -1
558 184 77 6.04672 0.258258 15.196 0 1 0
379 124 77 9.91912 5.60438 15.2299 0 0 -1
499 164 77 11.1594 8.80926 15.2084 0 0 0
306 100 77 8.62818 2.31224 15.2745 0 0 0
305 100 76 9.47079 1.97803 14.7975 0 0 0
307 100 77 9.8365 2.76558 14.3098 0 0 0
240 78 77 6.70486 5.54623 15.2695 0 0 -1
47 14 76 7.18729 8.75345 15.0049 0 0 0
408 134 77 6.1666 2.5017 15.4627 1 0 -1
232 75 77 17.0047 7.79602 15.1772 0 0 0
562 185 77 15.3955 2.68413 15.3609 0 1 0
230 75 76 16.9659 8.51993 14.4876 0 0 0
373 122 77 14.6173 6.31555 14.4195 0 0 -1
371 122 76 14.2534 7.23178 14.8311 0 0 -1
359 118 76 13.9944 1.77196 14.307 0 0 0
360 118 77 13.1794 1.29318 14.7351 0 0 0
372 122 77 14.2228 7.87997 14.0872 0 0 -1
581 192 76 1.80321 8.21353 16.2424 1 0 -1
559 184 77 5.61899 -0.0294113 16.7287 0 1 0
78 24 77 5.5874 6.67565 16.9023 0 0 0
583 192 77 1.26977 7.53327 16.8044 1 0 -1
172 55 77 2.97933 2.24858 15.6341 0 0 -1
582 192 77 2.51325 8.6273 16.8725 1 0 -1
353 116 76 0.330123 4.65163 15.784 0 0 0
355 116 77 0.193116 3.65681 15.6979 0 0 0
210 68 77 1.14911 2.10531 16.767 0 0 0
186 60 77 0.583806 5.69027 16.9069 1 1 0
219 71 77 3.50026 5.58575 15.6372 0 0 0
60 18 77 10.8661 1.44533 15.8339 0 1 0
557 184 76 6.22746 -0.323056 15.9654 0 1 0
48 14 77 7.04835 8.62556 15.9932 0 0 0
377 124 76 9.68033 6.1188 16.0638 0 0 -1
378 124 77 10.324 6.87013 15.9993 0 0 -1
241 78 77 7.80665 5.86287 16.4134 0 0 -1
239 78 76 6.81649 5.67611 16.2524 0 0 -1
407 134 76 6.90002 2.94567 16.025 1 0 -1
409 134 77 6.48277 3.84683 16.2903 1 0 -1
59 18 76 11.663 0.86164 16.0878 0 1 0
61 18 77 11.2362 -0.0514849 16.0904 0 1 0
497 164 76 11.5929 8.21594 15.8451 0 0 0
343 112 77 7.96521 -0.230169 16.4557 0 1 0
341 112 76 8.83451 -0.399189 16.9225 0 1 0
139 44 77 15.9339 5.31806 16.4625 -1 0 0
560 185 76 16.1534 2.96313 15.9956 0 1 0
138 44 77 17.4526 5.64997 16.1388 -1 0 0
137 44 76 16.5738 6.07779 16.5558 -1 0 0
561 185 77 16.8845 2.40403 15.5241 0 1 0
498 164 77 12.425 7.82724 15.5196 0 0 0
185 60 76 0.638314 6.43708 17.6601 1 1 0
79 24 77 4.4885 6.33378 18.0949 0 0 0
314 103 76 4.56732 0.749255 17.9949 0 1 0
209 68 76 2.00395 2.22207 17.1892 0 0 0
211 68 77 1.71707 2.59851 18.1552 0 0 0
316 103 77 3.77881 1.21959 17.5235 0 1 0
336 110 77 4.2315 8.4027 17.3308 0 0 -1
77 24 76 4.67935 6.87631 17.2651 0 0 0
187 60 77 0.0395532 6.14133 18.3863 1 1 0
460 151 77 8.67467 1.32364 17.9078 0 1 -1
228 74 77 10.5725 4.49737 17.7814 0 0 0
458 151 76 8.35087 2.22945 18.205 0 1 -1
216 70 77 10.0272 6.94 17.8251 0 0 0
459 151 77 8.02188 2.70101 17.3512 0 1 -1
227 74 76 10.8059 3.69824 18.3369 0 0 0
233 76 76 18.1321 -0.240031 17.6724 0 0 0
496 163 77 12.5673 0.715236 17.7691 0 1 -1
546 180 77 16.4367 7.43319 17.6934 0 0 0
426 140 77 15.4983 3.16117 17.5645 -1 0 -1
87 27 77 12.8913 7.76072 17.5494 0 0 0
545 180 76 16.1215 8.19013 18.3198 0 0 0
86 27 76 13.2117 7.25969 18.3764 0 0 0
639 211 77 2.27957 17.846 0.468482 1 -1 0
7 1 85 0.554905 11.2637 0.359328 0 0 1
638 211 76 1.54575 17.7031 -0.212573 1 -1 0
3 1 80 0.475454 10.1525 0.174433 0 0 1
310 101 77 4.02179 11.5161 0.199551 0 0 0
55 16 77 4.23113 13.6651 -0.362165 1 0 1
308 101 76 4.6324 10.8708 0.764823 0 0 0
538 177 77 2.32422 14.0842 0.817594 0 -1 0
469 154 77 7.3483 9.04154 0.740907 0 0 0
594 196 77 9.26973 13.7813 0.112659 0 0 1
412 135 77 8.75877 10.4227 0.0494527 0 0 1
411 135 77 10.1332 9.57247 -0.219296 0 0 1
432 142 77 11.2179 13.8244 0.811529 0 0 0
410 135 76 9.7777 10.4766 -0.0351674 0 0 1
168 54 77 8.07189 15.7352 -0.30316 0 0 1
467 154 76 7.18755 9.86249 0.125565 0 0 0
214 69 77 10.0566 11.9064 0.988603 0 -1 1
468 154 77 6.30046 10.3221 0.339159 0 0 0
431 142 76 12.0772 14.2563 0.446877 0 0 0
167 54 76 7.416 16.3855 0.103045 0 0 1
84 26 77 10.2746 17.0027 0.801525 0 0 0
42 12 77 15.0962 10.529 0.137125 0 0 0
447 147 77 14.3313 16.7868 0.597893 0 0 1
433 142 77 12.7687 13.5934 0.871099 0 0 0
448 147 77 15.3924 17.938 0.797916 0 0 1
495 163 77 13.0785 18.2657 -0.285544 0 0 0
6 1 85 18.3139 9.96738 -0.395568 -1 0 1
406 133 77 15.9684 16.4789 -0.366066 0 0 0
91 28 77 0.244794 18.1186 1.55049 1 0 1
2 1 222 0.640409 9.33249 1.3804 0 0 1
537 177 77 3.27544 15.187 1.48852 0 -1 0
567 187 77 4.39497 17.302 1.68694 0 0 0
536 177 76 2.45849 14.6836 1.65825 0 -1 0
398 131 76 5.20455 15.8744 1.95649 0 -1 0
566 187 76 3.90767 18.1637 1.48935 0 0 0
309 101 77 4.24345 10.7279 1.68513 0 0 0
1 1 223 0.333434 9.84062 2.46148 0 0 1
212 69 76 10.0496 12.8654 1.3748 0 -1 1
399 131 77 5.92773 16.1496 1.34325 0 -1 0
213 69 77 9.70797 12.7313 2.3767 0 -1 1
83 26 76 10.0938 17.5436 1.60858 0 0 0
286 93 77 6.28064 12.9603 1.52184 0 0 0
284 93 76 6.09533 13.1379 2.46669 0 0 0
23 6 76 15.7333 14.3046 1.93153 -1 0 0
516 170 77 13.0974 17.3876 2.26165 0 0 1
177 57 77 13.5271 11.2507 1.23894 0 0 0
178 57 77 13.6058 9.91966 2.33415 0 0 0
446 147 76 15.1613 17.0159 1.11538 0 0 1
24 6 77 15.805 15.2454 1.70983 -1 0 0
176 57 76 13.7395 10.2583 1.36552 0 0 0
205 66 77 13.917 13.9481 2.33814 0 0 1
25 6 77 16.422 13.8486 1.32469 -1 0 0
312 102 77 5.85867 16.793 3.84831 0 -1 0
237 77 77 2.54239 10.299 3.1622 0 0 0
573 189 77 0.387694 11.3841 3.53631 0 0 1
150 48 77 1.84815 14.8558 3.31283 1 0 0
236 77 76 3.52247 10.6635 3.1705 0 0 0
90 28 77 0.799039 17.0477 2.60299 1 0 1
160 51 77 5.0749 12.7719 3.80827 0 0 0
294 96 77 4.96307 9.71173 3.64078 1 0 0
89 28 76 0.544532 18.0265 2.53256 1 0 1
400 131 77 5.61637 15.0853 2.51226 0 -1 0
376 123 77 8.2031 11.2705 3.79254 0 0 0
374 123 76 8.48636 12.2288 3.53664 0 0 0
386 127 76 8.74434 16.4165 3.87182 0 -1 0
285 93 77 7.06027 13.0302 2.85433 0 0 0
387 127 77 9.04307 16.6661 2.92184 0 -1 0
488 161 76 8.33511 9.46237 3.69307 0 0 1
489 161 77 7.37976 9.20105 3.71519 0 0 1
517 170 77 11.5625 17.1775 2.54979 0 0 1
30 8 77 16.7115 14.738 3.71117 0 0 0
50 15 76 14.5196 9.7167 3.88252 0 0 0
204 66 77 13.013 13.4145 3.66243 0 0 1
515 170 76 12.4907 17.0419 2.92833 0 0 1
203 66 76 13.1652 13.2995 2.67766 0 0 1
574 189 77 0.614506 12.0857 5.03817 0 0 1
149 48 76 1.38441 14.7308 4.18476 1 0 0
158 51 76 4.90057 12.6387 4.77554 0 0 0
572 189 76 0.190727 12.2088 4.13364 0 0 1
293 96 76 5.61363 9.04849 4.07179 1 0 0
151 48 77 0.736271 13.9722 4.08441 1 0 0
159 51 77 5.75206 12.3949 5.21826 0 0 0
238 77 77 3.61235 11.1983 4.00394 0 0 0
552 182 77 3.60904 13.3465 5.37218 1 0 0
491 162 76 10.0386 14.1477 5.21102 0 0 0
388 127 77 9.2564 15.6302 4.24875 0 -1 0
492 162 77 11.0273 13.8022 5.2824 0 0 0
311 102 76 6.32255 17.4042 4.51808 0 -1 0
69 21 77 10.7765 10.4807 5.26418 0 0 0
313 102 77 7.33564 17.2777 4.45706 0 -1 0
643 212 77 12.1034 17.1995 4.70887 0 0 0
375 123 77 8.88408 12.6428 4.38538 0 0 0
70 21 77 9.16621 9.97949 5.03044 0 0 0
29 8 76 16.9787 15.2106 4.57793 0 0 0
100 31 77 13.2698 9.99175 4.92034 0 0 0
384 126 77 14.9638 17.8625 4.60607 0 0 0
385 126 77 13.9511 16.6469 4.76395 0 0 0
31 8 77 16.2406 15.87 4.76207 0 0 0
303 99 77 16.6163 12.5528 4.56144 0 0 1
383 126 76 14.9563 16.8935 4.87288 0 0 0
302 99 76 16.0478 11.8344 4.96644 0 0 1
52 15 77 14.9907 10.5881 4.17985 0 0 0
553 182 77 2.43666 14.4338 5.82109 1 0 0
586 193 77 1.99918 12.4923 6.57101 0 0 0
584 193 76 1.41548 11.6379 6.46867 0 0 0
578 191 76 -0.108133 16.7087 6.19689 1 0 1
551 182 76 2.96939 13.6829 6.16118 1 0 0
580 191 77 0.711548 16.8753 5.62436 1 0 1
119 38 76 2.2009 9.25469 5.56395 1 0 0
121 38 77 1.77981 10.1418 5.74757 1 0 0
68 21 76 9.80211 10.6243 5.54795 0 0 0
511 168 77 6.53564 15.8287 6.09884 0 0 0
642 212 77 11.5611 18.2274 5.80131 0 0 0
14 3 76 6.968 11.5297 6.38176 0 0 0
641 212 76 12.0038 17.3088 5.73372 0 0 0
15 3 77 7.9991 11.3509 6.29502 0 0 0
16 3 77 6.45229 10.7115 6.18897 0 0 0
493 162 77 9.67541 14.3317 6.18613 0 0 0
532 175 77 12.6646 12.197 5.56353 0 0 0
530 175 76 12.7022 13.2089 5.48066 0 0 0
99 31 77 12.1686 9.31322 5.92346 0 0 0
13 2 77 17.3229 14.4261 6.61982 0 0 0
531 175 77 13.4035 13.4724 6.14695 0 0 0
579 191 77 18.0436 16.3275 5.55203 0 0 1
108 34 77 15.0283 12.649 6.33345 0 0 0
98 31 76 12.4707 10.1887 5.51996 0 0 0
304 99 77 16.6417 11.2059 5.46556 0 0 1
523 172 77 0.408471 15.9259 7.7169 1 -1 0
126 40 77 5.22815 15.4156 7.70649 0 0 0
127 40 77 3.99358 14.4976 7.29797 0 0 0
585 193 77 1.24088 11.2688 7.33665 0 0 0
125 40 76 4.29187 15.1791 7.98421 0 0 0
299 98 76 11.7225 15.743 8.00294 0 0 0
81 25 77 10.2864 11.2649 7.05852 0 0 1
301 98 77 11.636 16.4999 7.27925 0 0 0
618 204 77 6.3941 11.6909 8.06392 0 0 0
413 136 76 9.18362 14.9101 7.87586 0 0 0
415 136 77 10.1881 15.0995 7.9899 0 0 0
80 25 76 10.5372 11.5455 8.03241 0 0 1
509 168 76 6.686 15.4618 6.99026 0 0 0
510 168 77 7.71315 15.3445 7.19778 0 0 0
82 25 77 11.5729 11.7048 8.14217 0 0 1
109 34 77 15.6984 13.5502 7.44514 0 0 0
12 2 77 17.8969 14.7897 8.09905 0 0 0
452 149 76 14.2866 16.7953 7.82107 0 0 0
534 176 77 18.3739 18.3655 7.16588 0 0 1
612 202 77 16.1569 10.1245 7.63052 0 0 0
453 149 77 14.1515 17.7973 8.08088 0 0 0
19 4 77 13.6315 12.2815 8.15409 0 0 0
500 165 76 14.6215 9.66839 8.14334 0 0 0
11 2 76 17.2925 14.1509 7.56656 0 0 0
502 165 77 13.9266 10.3761 8.0423 0 0 0
454 149 77 14.4987 16.6557 6.83251 0 0 0
107 34 76 14.8155 13.1202 7.20679 0 0 0
611 202 76 17.1483 10.154 7.27861 0 0 0
300 98 77 12.6618 15.3997 8.0064 0 0 0
613 202 77 17.3295 9.22218 6.91824 0 0 0
435 143 77 2.44806 11.5921 9.47095 0 0 0
522 172 77 1.40686 16.0799 9.05532 1 -1 0
570 188 77 0.0236017 11.6121 9.1051 1 0 0
153 49 77 3.47468 16.3242 8.91927 0 0 0
37 10 77 3.91771 13.8852 9.71123 0 0 0
521 172 76 0.624139 15.595 8.63753 1 -1 0
436 143 77 2.19493 10.0773 8.77951 0 0 0
434 143 76 1.77269 10.9098 9.21866 0 0 0
154 49 77 2.76657 17.8997 9.15801 0 0 0
152 49 76 2.77853 16.8993 9.44304 0 0 0
250 81 77 9.57369 12.5757 9.24764 0 0 0
577 190 77 10.1294 10.1116 8.83512 0 0 0
617 204 76 6.18691 11.8367 9.08582 0 0 0
619 204 77 6.83277 12.5413 9.32191 0 0 0
575 190 76 9.58713 9.28006 9.07978 0 0 0
38 11 76 8.64093 17.821 8.7543 0 0 0
414 136 77 8.86536 14.2988 8.61749 0 0 0
576 190 77 8.86022 9.5209 9.71446 0 0 0
39 11 77 8.49012 17.6796 9.70167 0 0 0
40 11 77 8.78721 16.9251 8.29248 0 0 0
569 188 76 17.9822 12.1329 9.39317 0 0 0
18 4 77 13.6329 11.9525 9.69885 0 0 0
17 4 76 13.1171 11.7639 8.8692 0 0 0
258 84 77 14.5434 15.8266 9.36471 0 -1 0
571 188 77 17.7095 12.5741 8.54907 0 0 0
36 10 77 4.11467 12.8576 10.9101 0 0 0
520 171 77 1.80096 13.7086 10.9062 1 0 0
519 171 77 0.506768 12.8591 10.5379 1 0 0
35 10 76 3.39415 13.3049 10.3547 0 0 0
555 183 77 2.97927 9.68015 10.3274 0 0 0
133 42 77 2.33268 16.2356 10.9923 0 0 0
105 33 77 6.17595 11.2809 10.5862 0 0 0
248 81 76 8.76623 12.9839 9.72508 0 0 0
363 119 77 11.8882 16.3359 11.1373 0 0 0
249 81 77 8.67792 12.4714 10.6225 0 0 0
464 153 76 11.3306 14.4046 11.0783 0 0 0
465 153 77 11.511 14.1756 10.1526 0 0 0
440 145 76 17.8306 9.47717 10.4747 0 0 0
259 84 77 15.6445 16.0043 10.5587 0 -1 0
442 145 77 17.7317 10.3869 10.0017 0 0 0
265 86 77 17.7178 17.1222 10.6671 0 -1 0
264 86 77 18.1722 15.7866 9.84431 0 -1 0
221 72 76 12.4464 9.54189 11.0908 0 0 0
222 72 77 12.5182 10.4523 10.6617 0 0 0
280 91 77 15.3098 13.7702 10.1549 0 0 0
257 84 76 14.765 15.6323 10.3342 0 -1 0
278 91 76 15.238 12.7733 10.4249 0 0 0
364 119 77 13.4945 16.5779 10.995 0 0 0
279 91 77 16.0058 12.3676 9.88265 0 0 0
263 86 76 17.4582 16.1995 10.4708 0 -1 0
132 42 77 1.27081 15.4092 11.9961 0 0 0
131 42 76 2.15913 15.9463 11.9497 0 0 0
554 183 76 3.54572 9.8056 11.202 0 0 0
556 183 77 2.94994 9.74196 11.989 0 0 0
323 106 76 5.82424 17.2987 12.0367 1 0 0
518 171 76 0.88355 13.4093 11.2831 1 0 0
324 106 77 5.56221 16.3572 12.3597 1 0 0
106 33 77 4.99764 10.579 11.5758 0 0 0
202 65 77 7.82713 11.0869 12.2292 0 0 0
654 216 77 8.84236 18.2446 11.8631 0 0 0
653 216 76 8.56487 17.319 11.5551 0 0 0
200 65 76 8.75723 11.3116 11.9418 0 0 0
655 216 77 7.57638 17.2828 11.5867 0 0 0
253 82 77 11.017 9.38871 12.5028 0 1 0
104 33 76 5.89734 11.0678 11.575 0 0 0
466 153 77 10.3408 14.4037 11.2189 0 0 0
598 197 77 13.9955 12.9808 12.159 0 0 0
628 207 77 15.4397 9.04477 11.5076 0 0 0
597 197 77 12.3973 13.4914 12.0232 0 0 0
223 72 77 13.1269 9.42062 11.8458 0 0 0
622 205 77 16.9414 14.8515 12.2108 0 0 0
621 205 77 18.3116 13.8321 12.3232 0 0 0
362 119 76 12.6386 17.0219 11.3126 0 0 0
130 41 77 4.63984 14.0436 13.3074 1 0 0
630 208 77 1.16285 12.7482 13.1483 0 0 0
243 79 77 5.67388 11.9362 13.0154 0 0 0
325 106 77 5.48493 17.8955 12.796 1 0 0
128 41 76 4.57916 15.0607 13.2019 1 0 0
629 208 76 0.924012 12.0488 13.8517 0 0 0
242 79 76 5.49484 12.4985 13.8234 0 0 0
62 19 76 1.97901 9.4607 13.7615 1 0 0
129 41 77 3.69473 15.3114 12.7654 1 0 0
631 208 77 1.41439 11.1267 13.7436 0 0 0
21 5 77 2.28422 17.1572 13.1676 0 0 0
20 5 76 2.27377 17.6698 14.035 0 0 0
201 65 77 8.99568 12.0008 12.681 0 0 0
251 82 76 10.2362 9.31021 13.0964 0 1 0
252 82 77 9.59972 10.0668 12.8782 0 1 0
614 203 76 9.24489 15.2863 13.3521 0 0 0
424 139 77 9.51048 13.6555 13.7683 0 0 0
615 203 77 8.96906 15.9262 12.6452 0 0 0
620 205 76 17.5921 14.3472 12.8439 0 0 0
596 197 76 13.0599 12.9768 12.6254 0 0 0
143 46 76 13.8629 10.5752 13.6822 0 0 0
290 95 76 12.6204 17.3864 13.8608 0 0 0
291 95 77 12.5592 17.4019 12.8232 0 0 0
145 46 77 13.6341 11.5478 13.4536 0 0 0
64 19 77 2.1527 9.38293 14.7261 1 0 0
58 17 77 5.06764 15.5926 14.8649 0 0 0
147 47 77 0.33892 17.113 14.5164 0 0 0
271 88 77 3.67888 12.0414 15.1926 0 0 0
22 5 77 2.42886 17.0626 14.7739 0 0 0
49 14 77 7.28949 9.7538 14.8261 0 0 0
423 139 77 10.0243 12.5611 14.9035 0 0 0
444 146 77 11.751 17.042 15.3186 0 0 0
616 203 77 9.47337 15.8764 14.1195 0 0 0
244 79 77 6.08097 12.1476 14.5402 0 0 0
422 139 76 9.44936 12.708 14.0675 0 0 0
282 92 77 16.0995 11.5721 15.4079 -1 0 0
144 46 77 14.5672 10.6348 14.3975 0 0 0
165 53 77 12.9398 13.7536 14.5234 0 0 0
231 75 77 16.5472 9.36014 15.0029 0 0 0
166 53 77 14.1271 14.5533 15.1092 0 0 0
164 53 76 13.165 14.373 15.3102 0 0 0
146 47 76 18.2432 17.4497 14.8348 -1 0 0
457 150 77 18.2984 12.1301 14.814 0 0 0
173 56 76 15.5351 15.317 14.9726 0 0 0
456 150 77 17.3525 13.3445 14.4239 0 0 0
175 56 77 16.2737 15.3284 14.2412 0 0 0
455 150 76 17.5487 12.7571 15.177 0 0 0
199 64 77 16.8316 18.2133 14.151 0 0 0
281 92 76 15.7002 10.6484 15.3989 -1 0 0
292 95 77 13.578 17.571 14.0782 0 0 0
56 17 76 5.30719 15.7981 15.8745 0 0 0
298 97 77 1.8244 12.7626 16.1354 1 0 0
297 97 77 0.636445 13.5927 15.6195 1 0 0
57 17 77 5.84779 16.6518 15.8563 0 0 0
270 88 77 3.81858 10.7781 16.2644 0 0 0
157 50 77 3.74054 15.8368 16.7571 0 0 0
155 50 76 2.70709 15.8575 16.8805 0 0 0
269 88 76 3.28824 11.5898 16.0472 0 0 0
296 97 76 1.37592 13.6895 16.2129 1 0 0
156 50 77 2.26736 15.047 16.3751 0 0 0
445 146 77 10.9848 16.1369 16.4615 0 0 0
478 157 77 11.4173 12.757 16.8808 0 0 0
443 146 76 10.8778 16.9402 15.8749 0 0 0
472 155 77 6.79931 12.0443 16.541 0 0 0
476 157 76 10.4715 12.4619 16.609 0 0 0
342 112 77 9.41764 17.8457 16.3256 0 0 0
471 155 77 8.14231 11.9389 15.5259 0 0 0
470 155 76 7.24688 11.5442 15.7463 0 0 0
148 47 77 18.2705 17.6934 15.7931 -1 0 0
174 56 77 15.9553 15.73 15.7803 0 0 0
283 92 77 15.2739 10.503 16.3117 -1 0 0
480 158 77 13.5472 16.2796 16.9486 0 0 0
335 110 76 3.89795 9.34317 17.5738 0 0 -1
337 110 77 4.43279 9.75329 18.3529 0 0 -1
234 76 77 0.199847 18.3301 18.0966 1 -1 0
640 211 77 1.90271 16.9924 17.9822 1 -1 -1
54 16 77 2.9281 13.4557 17.4786 1 0 0
5 1 85 1.31961 9.89752 18.2399 0 0 0
53 16 76 3.27759 13.2857 18.3371 1 0 0
395 130 76 6.16588 13.904 18.0674 0 0 0
397 130 77 5.9592 14.4836 17.2159 0 0 0
593 196 76 8.95334 14.1518 18.0159 0 0 0
396 130 77 7.20371 13.8417 18.0739 0 0 0
477 157 77 10.2063 11.866 17.3665 0 0 0
595 196 77 9.31761 13.5994 17.297 0 0 0
169 54 77 7.54787 17.2536 18.3735 0 0 0
404 133 76 16.5106 16.127 17.6472 0 0 -1
479 158 76 13.2408 16.5285 17.896 0 0 0
405 133 77 17.0402 16.8596 17.2304 0 0 -1
189 61 77 16.3092 14.4378 17.9926 0 0 0
190 61 77 17.1698 13.2558 17.411 0 0 0
188 61 76 16.4813 13.4625 18.1012 0 0 0
547 180 77 16.1885 9.02473 17.8197 0 0 0
43 12 77 15.7245 11.8071 18.1488 0 0 -1
41 12 76 15.3637 10.8509 18.0054 0 0 -1
481 158 77 13.002 15.6648 18.3566 0 0 0
ITEM: TIMESTEP
799000
ITEM: NUMBER OF ATOMS
658
ITEM: BOX BOUNDS pp pp pp
-3.9635287133714520e-01 1.8396352871337072e+01
-3.9635287133714520e-01 1.8396352871337072e+01
-3.9635287133714520e-01 1.8396352871337072e+01
ITEM: ATOMS id mol type x y z ix iy iz
649 214 77 0.814663 4.3831 0.824911 0 0 0
647 214 76 1.60662 3.78059 0.845162 0 0 0
390 128 77 5.41908 2.03835 0.134861 1 1 0
403 132 77 2.98388 4.90638 0.373597 1 0 0
401 132 76 4.01292 5.0742 0.266054 1 0 0
389 128 76 5.45981 2.68075 0.927 1 1 0
9 1 85 2.07403 7.73631 0.859805 0 0 1
402 132 77 4.48336 4.19852 0.264951 1 0 0
315 103 77 4.33904 -0.0850195 0.0251664 0 1 1
346 113 77 9.02465 7.38181 0.55124 0 0 1
469 154 77 8.00749 8.94696 0.297851 0 0 0
247 80 77 8.56696 2.59485 1.04581 0 0 0
604 199 77 15.9809 7.64397 0.510915 0 0 0
418 137 77 17.5644 4.65596 0.282467 -1 0 1
635 210 76 16.2518 1.38999 0.326138 0 1 0
461 152 76 13.4369 4.56816 0.125813 -1 1 0
494 163 76 12.2022 0.366172 0.62336 0 1 0
462 152 77 13.3116 5.57567 -0.130478 -1 1 0
416 137 76 18.1782 5.23416 0.881748 -1 0 1
463 152 77 12.69 4.00339 -0.29618 -1 1 0
427 140 77 15.3487 4.38992 -0.196415 -1 0 0
496 163 77 12.3066 0.964029 -0.182548 0 1 0
448 147 77 15.9314 -0.293081 0.340625 0 1 1
417 137 77 17.7027 6.11065 1.04908 -1 0 1
568 187 77 3.11242 -0.35222 2.01032 0 1 0
329 108 76 5.71324 6.38506 1.94348 0 0 0
110 35 76 0.0648457 1.70106 2.16899 0 0 0
331 108 77 5.1247 5.79037 1.35884 0 0 0
4 1 80 1.98297 8.29704 1.78277 0 0 1
8 1 85 2.89538 8.75254 1.92644 0 0 1
112 35 77 0.26212 0.735762 2.28668 0 0 0
648 214 77 1.30325 2.92901 1.3675 0 0 0
345 113 77 8.91199 6.14801 1.62412 0 0 1
391 128 77 6.39716 2.82356 1.20527 1 1 0
245 80 76 7.99011 2.94976 1.82388 0 0 0
344 113 76 8.51957 7.03181 1.3626 0 0 1
246 80 77 8.33921 3.90066 2.03963 0 0 0
85 26 77 10.2991 -0.0452783 2.34129 0 1 0
330 108 77 6.62927 6.54454 1.53141 0 0 0
288 94 77 12.0263 1.63489 2.29745 0 0 0
352 115 77 12.9533 4.74188 2.18529 0 0 0
111 35 77 17.8869 1.81701 1.9131 -1 0 0
636 210 77 15.9224 1.86401 1.1468 0 1 0
603 199 77 16.5948 8.1393 2.01213 0 0 0
602 199 76 16.4702 7.32097 1.35413 0 0 0
543 179 77 13.6446 0.457854 1.81578 0 1 0
274 89 77 15.8482 6.0715 2.30178 0 0 1
338 111 76 3.28167 0.742745 3.19344 1 0 0
10 1 85 1.80533 7.62476 2.57934 0 0 1
295 96 77 4.84148 6.87814 3.20382 1 0 0
294 96 77 4.15629 8.25344 3.75987 1 0 0
226 73 77 0.497881 5.43837 2.75045 1 0 0
339 111 77 2.72923 1.57009 3.40354 1 0 0
96 30 77 0.813748 2.43073 3.82574 0 0 0
475 156 77 5.57518 2.77123 3.69704 0 0 0
224 73 76 0.447603 5.43453 3.75762 1 0 0
340 111 77 4.23894 1.0849 3.33448 1 0 0
293 96 76 4.17534 7.31379 3.8928 1 0 0
650 215 76 9.47611 4.93567 2.6342 0 0 0
490 161 77 8.14859 7.59608 3.09982 0 0 1
287 94 76 11.3593 2.11806 2.87222 0 0 0
34 9 77 10.0037 2.00454 3.61591 0 0 0
651 215 77 9.37018 4.86404 3.66569 0 0 0
33 9 77 8.425 2.12942 3.33931 0 0 0
289 94 77 11.5861 3.12755 2.79543 0 0 0
652 215 77 10.4915 5.13654 2.57598 0 0 0
488 161 76 7.7504 8.03277 3.93336 0 0 1
542 179 76 13.8942 0.663166 2.79495 0 1 0
350 115 76 12.1602 4.82917 2.79576 0 0 0
357 117 77 15.3298 3.71196 2.50366 0 0 0