[Molden Format]
[Title]
 Molden file created by orca_2mkl for BaseName=temp

[Atoms] AU
O    1   8         -0.5739060474        18.3506807317         5.8692663843 
C    2   6          0.6272492367        17.7643421760         4.0240640878 
C    3   6          0.0384502576        18.8303933800         1.4507200763 
C    4   6          2.7945666911        15.9236601045         4.1674470582 
H    5   1         -1.3875597597        20.3040490623         1.6047006309 
H    6   1          1.7441888757        19.5799078976         0.5564393088 
H    7   1         -0.6662626328        17.3218250073         0.2230613831 
H    8   1          2.9197364810        15.1260104828         6.0586093840 
H    9   1          4.5623847024        16.8943179332         3.7118775510 
H   10   1          2.5656433775        14.4167112271         2.7721243035 
[GTO]
  1 0
s   6 1.0 
    27032.3800000000         0.8598581393
     4052.3870000000         1.6055304059
      922.3272000000         2.7458780898
      261.2407000000         4.2987677378
       85.3546400000         5.8797670930
       31.0350400000         6.3163984679
s   2 1.0 
       12.2608600000         2.9812145398
        4.9987080000         0.9419560379
s   1 1.0 
        1.1703110000         0.8019292557
s   1 1.0 
        0.4647474000         0.4011647998
s   1 1.0 
        0.1850454000         0.2010799703
p   4 1.0 
       63.2749500000         3.0572013698
       14.6270500000         3.3844845670
        4.4501220000         2.9474258212
        1.5275800000         1.7118271901
p   1 1.0 
        0.5293512000         0.6436058239
p   1 1.0 
        0.1747842000         0.1610897108
d   1 1.0 
        2.3140000000        12.3767310624
d   1 1.0 
        0.6450000000         1.3234257612
f   1 1.0 
        1.4280000000        12.7097950062

  2 0
s   6 1.0 
    13575.3500000000         0.5435905009
     2035.2330000000         1.0145543008
      463.2256000000         1.7315731015
      131.2002000000         2.6910371555
       42.8530200000         3.6044547316
       15.5841900000         3.7025565440
s   2 1.0 
        6.2067140000         1.8383540114
        2.5764900000         0.5447576606
s   1 1.0 
        0.5769634000         0.4718145074
s   1 1.0 
        0.2297283000         0.2364944571
s   1 1.0 
        0.0951644400         0.1221141848
p   4 1.0 
       34.6972300000         1.3596652360
        7.9582620000         1.4512590746
        2.3780830000         1.2709231872
        0.8143321000         0.8025721831
p   1 1.0 
        0.2888755000         0.3018759228
p   1 1.0 
        0.1005682000         0.0807264648
d   1 1.0 
        1.0970000000         3.3522135855
d   1 1.0 
        0.3180000000         0.3838994974
f   1 1.0 
        0.7610000000         3.0840084332

  3 0
s   6 1.0 
    13575.3500000000         0.5435905009
     2035.2330000000         1.0145543008
      463.2256000000         1.7315731015
      131.2002000000         2.6910371555
       42.8530200000         3.6044547316
       15.5841900000         3.7025565440
s   2 1.0 
        6.2067140000         1.8383540114
        2.5764900000         0.5447576606
s   1 1.0 
        0.5769634000         0.4718145074
s   1 1.0 
        0.2297283000         0.2364944571
s   1 1.0 
        0.0951644400         0.1221141848
p   4 1.0 
       34.6972300000         1.3596652360
        7.9582620000         1.4512590746
        2.3780830000         1.2709231872
        0.8143321000         0.8025721831
p   1 1.0 
        0.2888755000         0.3018759228
p   1 1.0 
        0.1005682000         0.0807264648
d   1 1.0 
        1.0970000000         3.3522135855
d   1 1.0 
        0.3180000000         0.3838994974
f   1 1.0 
        0.7610000000         3.0840084332

  4 0
s   6 1.0 
    13575.3500000000         0.5435905009
     2035.2330000000         1.0145543008
      463.2256000000         1.7315731015
      131.2002000000         2.6910371555
       42.8530200000         3.6044547316
       15.5841900000         3.7025565440
s   2 1.0 
        6.2067140000         1.8383540114
        2.5764900000         0.5447576606
s   1 1.0 
        0.5769634000         0.4718145074
s   1 1.0 
        0.2297283000         0.2364944571
s   1 1.0 
        0.0951644400         0.1221141848
p   4 1.0 
       34.6972300000         1.3596652360
        7.9582620000         1.4512590746
        2.3780830000         1.2709231872
        0.8143321000         0.8025721831
p   1 1.0 
        0.2888755000         0.3018759228
p   1 1.0 
        0.1005682000         0.0807264648
d   1 1.0 
        1.0970000000         3.3522135855
d   1 1.0 
        0.3180000000         0.3838994974
f   1 1.0 
        0.7610000000         3.0840084332

  5 0
s   3 1.0 
       34.0613400000         0.2556298765
        5.1235750000         0.4613598729
        1.1646630000         0.6811216893
s   1 1.0 
        0.3272304000         0.3083545241
s   1 1.0 
        0.1030724000         0.1296483171
p   1 1.0 
        0.8000000000         1.0784563492

  6 0
s   3 1.0 
       34.0613400000         0.2556298765
        5.1235750000         0.4613598729
        1.1646630000         0.6811216893
s   1 1.0 
        0.3272304000         0.3083545241
s   1 1.0 
        0.1030724000         0.1296483171
p   1 1.0 
        0.8000000000         1.0784563492

  7 0
s   3 1.0 
       34.0613400000         0.2556298765
        5.1235750000         0.4613598729
        1.1646630000         0.6811216893
s   1 1.0 
        0.3272304000         0.3083545241
s   1 1.0 
        0.1030724000         0.1296483171
p   1 1.0 
        0.8000000000         1.0784563492

  8 0
s   3 1.0 
       34.0613400000         0.2556298765
        5.1235750000         0.4613598729
        1.1646630000         0.6811216893
s   1 1.0 
        0.3272304000         0.3083545241
s   1 1.0 
        0.1030724000         0.1296483171
p   1 1.0 
        0.8000000000         1.0784563492

  9 0
s   3 1.0 
       34.0613400000         0.2556298765
        5.1235750000         0.4613598729
        1.1646630000         0.6811216893
s   1 1.0 
        0.3272304000         0.3083545241
s   1 1.0 
        0.1030724000         0.1296483171
p   1 1.0 
        0.8000000000         1.0784563492

 10 0
s   3 1.0 
       34.0613400000         0.2556298765
        5.1235750000         0.4613598729
        1.1646630000         0.6811216893
s   1 1.0 
        0.3272304000         0.3083545241
s   1 1.0 
        0.1030724000         0.1296483171
p   1 1.0 
        0.8000000000         1.0784563492

[5D]
[7F]
[9G]
[MO]
 Sym=     1a
 Ene= -1.91920643213291E+01
 Spin= Alpha
 Occup= 2.000000
  1      -0.435383613674
  2      -0.639605250626
  3      -0.034927343839
  4       0.028858444403
  5      -0.010102681882
  6      -0.001065242887
  7       0.000569456765
  8       0.001745167527
  9       0.003290784662
 10      -0.001636654664
 11      -0.005133092152
 12      -0.000246769231
 13       0.000135585002
 14       0.000414879478
 15      -0.000136513888
 16       0.000249980593
 17      -0.000144392788
 18      -0.000055034849
 19       0.000019536905
 20       0.000708507629
 21      -0.001151879096
 22       0.000610053292
 23       0.000259997666
 24      -0.000250430844
 25      -0.000024746431
 26       0.000133312157
 27      -0.000060625720
 28      -0.000059594003
 29       0.000080169881
 30      -0.000003233815
 31       0.000032000074
 32      -0.000043228798
 33       0.000259299999
 34      -0.000764834492
 35      -0.004338838986
 36       0.001401345279
 37       0.000345990644
 38      -0.000166625943
 39      -0.000528616760
 40       0.004510950507
 41      -0.002200258244
 42      -0.006930924193
 43      -0.002716024437
 44       0.001308720433
 45       0.004111929131
 46      -0.000192293989
 47       0.000256537818
 48      -0.000116074576
 49      -0.000083865900
 50       0.000124038291
 51      -0.002040097230
 52       0.003731996529
 53      -0.002102861322
 54      -0.000758454636
 55       0.000382617309
 56      -0.000114338055
 57      -0.000036929041
 58       0.000134789047
 59      -0.000022757430
 60       0.000094839766
 61       0.000051317048
 62       0.000142744134
 63      -0.000017615441
 64       0.000084691548
 65      -0.000351756890
 66      -0.001186396230
 67       0.001871136587
 68      -0.000004185719
 69       0.000005589384
 70      -0.000197443087
 71      -0.000282592742
 72       0.000826472117
 73      -0.000549571344
 74       0.000695308410
 75      -0.000521560112
 76       0.000022509689
 77      -0.000084577365
 78       0.000009759844
 79       0.000038140228
 80      -0.000016403337
 81       0.000060944647
 82      -0.000514757322
 83      -0.000190264154
 84       0.000020045261
 85       0.000202045341
 86      -0.001178857123
 87      -0.000087101019
 88      -0.000059769636
 89       0.000038098726
 90       0.000012529912
 91      -0.000081505462
 92       0.000052286628
 93       0.000043203800
 94      -0.000017596239
 95       0.000084616562
 96      -0.000349353330
 97      -0.001173179530
 98       0.001872221463
 99       0.000164267593
100      -0.000090055668
101      -0.000057493209
102       0.000398566420
103      -0.000808037528
104       0.000441184374
105      -0.000179790215
106       0.000298974899
107      -0.000785334187
108      -0.000009851770
109       0.000024362491
110       0.000002785923
111      -0.000025059255
112       0.000105466056
113       0.001087057959
114       0.000166171288
115      -0.000671510249
116      -0.000104716034
117      -0.000242367196
118       0.000032073134
119      -0.000095912654
120       0.000086465030
121       0.000021547556
122       0.000069922562
123      -0.000027448300
124       0.000017540846
125      -0.000128649271
126      -0.001068301514
127       0.000161879563
128      -0.000109842503
129       0.000171752673
130      -0.000052199606
131      -0.000000444766
132       0.000491152885
133      -0.000362197628
134      -0.000095021415
135       0.000076581747
136       0.000146915722
137       0.000061225218
138       0.000896048620
139      -0.000413970570
140      -0.000019721240
141       0.000101927623
142       0.000188119037
143      -0.000129430902
144      -0.001073165213
145       0.000164001571
146       0.000051852673
147      -0.000132745425
148       0.000154016447
149       0.000054848599
150       0.000862215746
151      -0.000404561051
152      -0.000171901545
153       0.000001169653
154       0.000126331376
155       0.000005813197
156       0.000552594610
157      -0.000356828507
158      -0.000100979529
159       0.000034940909
160       0.000163778658
 Sym=     1a
 Ene= -1.03127285001268E+01
 Spin= Alpha
 Occup= 2.000000
  1       0.000084803335
  2       0.000355908956
  3      -0.003612387628
  4       0.014876776795
  5      -0.000123185756
  6      -0.000358341739
  7       0.000174171781
  8       0.000549282172
  9       0.004552738625
 10      -0.002221473226
 11      -0.006990470458
 12       0.000091808395
 13      -0.000042357598
 14      -0.000141348445
 15       0.000024689753
 16       0.000050219302
 17      -0.000079673809
 18       0.000004449307
 19      -0.000117600936
 20       0.001372834683
 21      -0.002458015474
 22       0.001420714412
 23       0.000540525864
 24      -0.000239881658
 25      -0.000015488859
 26       0.000453951322
 27      -0.000273288243
 28      -0.000191297697
 29       0.000210499736
 30      -0.000044594906
 31       0.000029962075
 32      -0.467186269197
 33      -0.608422102373
 34      -0.038263554518
 35       0.023545846295
 36      -0.017962578959
 37       0.000500083860
 38      -0.000282177293
 39      -0.000787733363
 40       0.007827047827
 41      -0.003787403378
 42      -0.012037512232
 43      -0.003334078583
 44       0.001607010902
 45       0.005084728477
 46      -0.001117370319
 47       0.001221265354
 48      -0.000307436790
 49      -0.000411010651
 50       0.001106803268
 51      -0.002236158986
 52       0.005903201860
 53      -0.004377885848
 54      -0.000931064407
 55      -0.001807711828
 56      -0.000257645385
 57       0.001293273698
 58      -0.000578429835
 59      -0.000600642737
 60       0.000804378765
 61      -0.000037015508
 62       0.000346383774
 63      -0.000606078090
 64      -0.000895910163
 65       0.000913481671
 66      -0.008463404911
 67       0.007746241310
 68      -0.000078044623
 69       0.000064104976
 70       0.000013377274
 71      -0.000138050051
 72       0.001183117675
 73      -0.004739283662
 74       0.001070891605
 75      -0.000971204176
 76       0.002304286864
 77       0.000108645785
 78       0.000012037555
 79      -0.000037390270
 80      -0.000018491063
 81       0.000017327237
 82      -0.000970220652
 83       0.000389646310
 84      -0.000094775193
 85       0.000048460371
 86      -0.000437587393
 87       0.000280090309
 88       0.000423868058
 89      -0.000572406370
 90      -0.000165323447
 91      -0.000123833633
 92       0.000135268536
 93       0.000067112724
 94      -0.000595510086
 95      -0.000882518878
 96       0.000911669984
 97      -0.008427160129
 98       0.007750738601
 99       0.000007341789
100      -0.000026571804
101       0.000098078460
102       0.003751448409
103      -0.002972708652
104      -0.000875797644
105      -0.002146648305
106       0.001570016159
107      -0.000557613004
108      -0.000070710709
109      -0.000033990829
110       0.000023982305
111       0.000025376542
112      -0.000081297768
113       0.000429129202
114       0.000724431237
115      -0.000627782270
116      -0.000247246552
117       0.000348541078
118       0.000043419200
119       0.000481032722
120      -0.000256373041
121      -0.000074327936
122       0.000208986933
123      -0.000322886693
124      -0.000445020400
125      -0.000006545946
126       0.000238285524
127      -0.000420555450
128      -0.000000946484
129      -0.000041140671
130       0.000363721964
131      -0.000022872931
132       0.000474804847
133      -0.000129305563
134       0.000095820726
135      -0.000046373588
136       0.000228947528
137       0.000034520931
138       0.000501805241
139       0.000380641302
140       0.000017380575
141      -0.000128534758
142       0.000216476746
143      -0.000005615680
144       0.000235567829
145      -0.000431569448
146      -0.000294915669
147       0.000190117571
148       0.000098940619
149       0.000030917510
150       0.000507377813
151       0.000343860287
152      -0.000159944856
153       0.000199515034
154      -0.000001200514
155      -0.000018743832
156       0.000466143637
157      -0.000072297883
158      -0.000222848334
159       0.000106773723
160      -0.000029584204
 Sym=     1a
 Ene= -1.02132128824723E+01
 Spin= Alpha
 Occup= 2.000000
  1      -0.000004634796
  2       0.000054057525
  3      -0.000616813822
  4       0.002604776661
  5      -0.000703424672
  6       0.000031083763
  7      -0.000068663079
  8       0.000142346313
  9      -0.000083326530
 10       0.000386344729
 11      -0.001208512188
 12       0.000437933490
 13      -0.000445403733
 14      -0.000030994876
 15      -0.000038887994
 16       0.000004965120
 17      -0.000000516789
 18       0.000004125023
 19      -0.000032747311
 20       0.000301577938
 21       0.000020584761
 22      -0.000081716091
 23      -0.000039658623
 24       0.000162437132
 25      -0.000005139029
 26      -0.000049364039
 27       0.000030352341
 28       0.000010395850
 29      -0.000019437352
 30       0.000026261945
 31       0.000034297241
 32       0.000674574312
 33       0.000787504092
 34      -0.000009875078
 35      -0.002653830874
 36       0.009351405242
 37       0.000233411241
 38      -0.000279332398
 39       0.000409094082
 40      -0.002012760820
 41       0.002504732785
 42      -0.003651630380
 43      -0.003482189326
 44       0.003656454092
 45      -0.003841545942
 46       0.000122503474
 47      -0.000015379411
 48      -0.000058967560
 49       0.000010484310
 50      -0.000100821422
 51       0.002511559067
 52       0.002198411745
 53      -0.002479820347
 54      -0.000804903669
 55       0.001485719664
 56      -0.000455198873
 57      -0.000284367026
 58       0.000647251345
 59       0.000130486008
 60       0.000382170497
 61      -0.000148307568
 62      -0.000048586064
 63      -0.467078349783
 64      -0.608676756845
 65      -0.034405974394
 66       0.014037092184
 67      -0.032504105018
 68      -0.000157828316
 69       0.000267323268
 70      -0.000242338977
 71       0.000019833087
 72       0.000208452607
 73      -0.000686945276
 74      -0.001232843382
 75       0.002253059522
 76      -0.002615670901
 77      -0.000034318875
 78       0.000043464624
 79       0.000008079455
 80      -0.000006342481
 81       0.000073195084
 82      -0.000104319925
 83       0.000013174490
 84      -0.000102525606
 85       0.000035822449
 86      -0.000545093039
 87      -0.000671310589
 88      -0.000290945567
 89       0.000730979010
 90       0.000053240169
 91       0.000790069390
 92       0.000806006909
 93       0.000812237969
 94       0.001384142831
 95       0.001795740833
 96      -0.000392246198
 97       0.003577537997
 98       0.004021779082
 99       0.000062181725
100      -0.000052405995
101       0.000087034105
102      -0.002161003119
103       0.002175993128
104      -0.001517280729
105      -0.000745361293
106       0.001587100208
107      -0.001657423417
108       0.000008365653
109      -0.000018641082
110      -0.000021929216
111       0.000001998437
112      -0.000065949460
113      -0.000925366401
114       0.000769761217
115      -0.000300296748
116       0.000085431571
117      -0.000682531147
118       0.000079804119
119       0.000012397837
120      -0.000000725546
121       0.000005069760
122       0.000084152897
123      -0.000044190770
124      -0.000089511347
125       0.000455082817
126       0.001849397227
127       0.003756039699
128       0.001319328118
129      -0.001346224216
130      -0.000178760868
131       0.000434046850
132       0.002602077808
133       0.004947316025
134      -0.001609338000
135      -0.000690755422
136       0.000928054480
137       0.000431232579
138       0.002735350864
139       0.005351096702
140       0.000657731476
141       0.001407911230
142       0.001247514545
143       0.000070945058
144       0.000849378711
145       0.001033515176
146      -0.000085756283
147       0.000105707702
148      -0.000120961079
149      -0.000030775219
150      -0.000395148994
151      -0.000789437418
152       0.000063148008
153      -0.000036094363
154      -0.000051811935
155      -0.000029210662
156      -0.000262218402
157      -0.000157018064
158       0.000082778372
159       0.000014900856
160      -0.000063530091
 Sym=     1a
 Ene= -1.02115251482442E+01
 Spin= Alpha
 Occup= 2.000000
  1       0.000004703568
  2      -0.000054885659
  3       0.000624972167
  4      -0.002630911968
  5       0.000734890635
  6       0.000118211877
  7      -0.000109059531
  8       0.000011102377
  9      -0.000970038864
 10       0.000809695261
 11       0.000145231604
 12       0.000068981133
 13      -0.000243660362
 14       0.000576654619
 15      -0.000033114686
 16      -0.000021327539
 17       0.000029124697
 18       0.000010594079
 19      -0.000008414961
 20       0.000251296060
 21       0.000100588065
 22      -0.000145102750
 23      -0.000069452238
 24       0.000157287312
 25       0.000023006783
 26       0.000045645435
 27      -0.000052912637
 28      -0.000019158000
 29      -0.000004884266
 30       0.000005980486
 31       0.000002905693
 32      -0.000668070537
 33      -0.000778120731
 34      -0.000010553971
 35       0.002777904430
 36      -0.009427389839
 37       0.000376902870
 38      -0.000347046112
 39       0.000187780483
 40      -0.003294579665
 41       0.003106777115
 42      -0.001636484348
 43      -0.003849885809
 44       0.003810990234
 45      -0.003305878192
 46      -0.000020721733
 47       0.000037621515
 48       0.000015432185
 49      -0.000032713744
 50       0.000160914161
 51       0.003760795101
 52      -0.000898313463
 53      -0.000278592226
 54      -0.000308166952
 55       0.002199604433
 56       0.000089832908
 57       0.000335345151
 58      -0.000260783902
 59       0.000043022512
 60       0.000128114973
 61      -0.000435624568
 62      -0.000704541502
 63       0.001383696899
 64       0.001811036079
 65       0.000606628749
 66      -0.003712237500
 67      -0.003874225934
 68       0.000086428401
 69      -0.000070409079
 70       0.000050670363
 71      -0.001634943259
 72       0.001978235314
 73      -0.002307299874
 74      -0.001275266324
 75       0.001885561357
 76      -0.000772287351
 77      -0.000043770416
 78       0.000004901114
 79       0.000027332160
 80       0.000009357615
 81       0.000049487556
 82      -0.000369746981
 83      -0.001031483813
 84       0.000904455579
 85       0.000134684925
 86      -0.000080503589
 87       0.000013851781
 88      -0.000066178678
 89       0.000059976139
 90      -0.000008755216
 91       0.000111503235
 92      -0.000048726911
 93      -0.000014956056
 94       0.467079268520
 95       0.608675133157
 96       0.034428731057
 97      -0.014126360990
 98       0.032554947358
 99      -0.000239412958
100       0.000280875403
101      -0.000182839765
102      -0.000456416589
103       0.000421672184
104       0.000142809107
105      -0.002210950512
106       0.002671219753
107      -0.001216693551
108       0.000056511976
109      -0.000039855225
110      -0.000014377850
111       0.000004231724
112      -0.000062872055
113      -0.000350702270
114      -0.000102917435
115       0.000346572767
116       0.000022224507
117       0.000283538087
118       0.000710720477
119      -0.000038044201
120      -0.001206759529
121       0.000107647362
122      -0.000463152492
123      -0.000187239846
124      -0.000881361985
125      -0.000072688419
126      -0.000849066227
127      -0.001053938612
128      -0.000115266389
129       0.000129024640
130      -0.000077645767
131       0.000022793466
132       0.000205821177
133       0.000139355294
134       0.000003174464
135       0.000071462284
136       0.000074275005
137       0.000030273211
138       0.000409954408
139       0.000756677722
140      -0.000021645862
141       0.000002314956
142       0.000081959967
143      -0.000455779234
144      -0.001843248140
145      -0.003751771985
146       0.000086751435
147      -0.000708456702
148       0.001752788521
149      -0.000433121745
150      -0.002738093916
151      -0.005344943573
152       0.001736483339
153       0.000862271399
154      -0.000459437188
155      -0.000434675170
156      -0.002629864412
157      -0.004983626395
158      -0.000141697661
159      -0.001448294300
160      -0.001353200949
 Sym=     1a
 Ene= -1.07633757736950E+00
 Spin= Alpha
 Occup= 2.000000
  1       0.088736300396
  2       0.209078517798
  3      -0.300215189079
  4      -0.395149425241
  5      -0.123280258046
  6      -0.059817143876
  7       0.031275577918
  8       0.095387245657
  9      -0.045159826852
 10       0.024765467619
 11       0.073785288938
 12       0.001339679946
 13       0.005012745033
 14       0.007768159622
 15      -0.003198947387
 16       0.005133611889
 17      -0.002759747565
 18      -0.001137207771
 19       0.001180130920
 20      -0.006175083964
 21       0.012017947211
 22      -0.006844418241
 23      -0.003433633723
 24       0.000312607117
 25       0.000231108372
 26      -0.002318170117
 27       0.001232418370
 28       0.000912478326
 29      -0.001166133951
 30       0.000132436025
 31      -0.000391372798
 32       0.057376982284
 33       0.120891148493
 34      -0.187628836952
 35      -0.148365692301
 36      -0.026982400253
 37       0.071760918691
 38      -0.034539354351
 39      -0.109329691924
 40       0.019478489474
 41      -0.010043067188
 42      -0.029969578053
 43      -0.004372342872
 44       0.000952465082
 45      -0.001457952931
 46      -0.009715479522
 47       0.014499309418
 48      -0.006468221061
 49      -0.003857261820
 50       0.005537721047
 51      -0.004800826369
 52       0.001430156184
 53       0.001185640759
 54      -0.000892273857
 55       0.007182127234
 56       0.000447619617
 57       0.006537636923
 58      -0.004556979428
 59      -0.002526098907
 60       0.002389761252
 61      -0.000901682587
 62      -0.000388587615
 63       0.008527308103
 64       0.017670572566
 65      -0.026737499167
 66      -0.014810906556
 67       0.008987377585
 68       0.000266090038
 69       0.003620930577
 70      -0.016417913708
 71       0.001716519352
 72      -0.000921717404
 73      -0.003433252187
 74       0.000628260760
 75      -0.000071217189
 76       0.001796259771
 77      -0.001325758059
 78       0.000342803507
 79       0.000216057517
 80       0.000017676579
 81      -0.000093672769
 82      -0.000301743679
 83       0.001190368011
 84      -0.000997402635
 85      -0.000377678668
 86      -0.000483813103
 87      -0.000677610026
 88       0.000694427223
 89      -0.000113562257
 90      -0.000152944768
 91       0.000157146862
 92       0.000044112343
 93      -0.000061203156
 94       0.008458224437
 95       0.017531197097
 96      -0.026528785897
 97      -0.015122190571
 98       0.015617402164
 99       0.012915029366
100      -0.009951545024
101      -0.003784939096
102       0.002534234720
103      -0.001470429217
104      -0.002834422222
105      -0.002717790913
106       0.002997670255
107       0.000490494817
108       0.000438698614
109       0.000715233926
110      -0.000517258543
111      -0.000304558570
112       0.000929489276
113      -0.000473982056
114       0.001094319368
115      -0.000691627693
116      -0.000244039688
117      -0.000432404984
118       0.000346389278
119       0.000375596000
120      -0.000148044021
121      -0.000357978628
122       0.000579303478
123       0.000086212153
124       0.000417856551
125      -0.005084462312
126      -0.005364732768
127      -0.001962266500
128      -0.000747681389
129       0.000926656353
130      -0.000535248460
131      -0.002795048686
132      -0.002891382152
133      -0.001370736935
134       0.000326282588
135       0.000247160953
136      -0.000617227265
137      -0.003144919773
138      -0.003561219825
139      -0.001352601307
140      -0.000211662102
141      -0.000135363296
142      -0.000976277874
143      -0.005037541670
144      -0.005173898750
145      -0.002094380970
146       0.000508764643
147      -0.000776726141
148       0.000829022187
149      -0.003035957166
150      -0.003529615297
151      -0.001412547413
152       0.000859426319
153      -0.000177682333
154      -0.000185905627
155      -0.002819541898
156      -0.003206577117
157      -0.001470827971
158       0.000363483003
159      -0.000634450060
160      -0.000379370461
 Sym=     1a
 Ene= -7.86256833088859E-01
 Spin= Alpha
 Occup= 2.000000
  1      -0.030348491305
  2      -0.072230193775
  3       0.109473205781
  4       0.140203241640
  5       0.071873357546
  6      -0.003639683955
  7       0.000096532989
  8       0.003600003978
  9      -0.004148026056
 10       0.000136325625
 11       0.004388817481
 12      -0.006604504006
 13      -0.000873115185
 14       0.004353248535
 15       0.000168504046
 16      -0.000456340996
 17       0.000377851800
 18       0.000034783802
 19       0.000158648135
 20      -0.000680992814
 21      -0.000534341805
 22       0.000615977126
 23       0.000474360205
 24       0.001253954255
 25       0.000078971719
 26       0.000131655618
 27      -0.000172264761
 28       0.000042733750
 29       0.000009444357
 30      -0.000008156744
 31      -0.000048772042
 32       0.044165582367
 33       0.094431979615
 34      -0.149963598368
 35      -0.148997498703
 36      -0.034398000947
 37      -0.068975770223
 38       0.032889198619
 39       0.107704734379
 40      -0.041253616240
 41       0.020632380084
 42       0.063410989262
 43      -0.007787299333
 44       0.005872044664
 45       0.010211969984
 46       0.001161141941
 47      -0.006116160847
 48       0.005247677688
 49       0.000790713105
 50       0.004128635113
 51       0.001377994216
 52      -0.005035928133
 53       0.005373576865
 54      -0.000258221810
 55       0.003745986463
 56       0.001212038361
 57       0.000445802176
 58      -0.001503130723
 59       0.000211415241
 60      -0.001089299343
 61      -0.000643021724
 62      -0.001609273874
 63       0.059689857281
 64       0.127010252446
 65      -0.189504034190
 66      -0.225306387812
 67      -0.016619881200
 68      -0.018537191452
 69       0.022800616349
 70      -0.025174905237
 71      -0.017310114465
 72       0.022281691142
 73      -0.023636837881
 74       0.000003243422
 75      -0.000523998865
 76      -0.000694245982
 77      -0.001473290173
 78      -0.001847613444
 79       0.002433439385
 80       0.000282594321
 81       0.000967060378
 82      -0.003244789468
 83      -0.005647874591
 84       0.005917758425
 85       0.001353564690
 86       0.001750592021
 87      -0.001259994468
 88      -0.001821512692
 89       0.002830697784
 90       0.000444946921
 91       0.002634675791
 92       0.001138777402
 93       0.001439123217
 94       0.058057447092
 95       0.123524572691
 96      -0.184709136818
 97      -0.217288156595
 98      -0.006689103573
 99       0.024017373332
100      -0.024956927973
101       0.017937575631
102       0.021985101406
103      -0.022797408777
104       0.016467206047
105       0.001087648208
106       0.001213011284
107       0.007028014983
108       0.001435693019
109      -0.001253153005
110       0.001064042423
111      -0.000242733596
112       0.002791915587
113       0.004465868757
114      -0.003973984710
115       0.002725236760
116      -0.000106119499
117       0.005694860657
118      -0.002117751641
119      -0.000589012060
120       0.002715582040