
                                 *****************
                                 * O   R   C   A *
                                 *****************

           --- An Ab Initio, DFT and Semiempirical electronic structure package ---

                  #######################################################
                  #                        -***-                        #
                  #          Department of theory and spectroscopy      #
                  #               Directorship: Frank Neese             #
                  #        Max Planck Institute fuer Kohlenforschung    #
                  #                Kaiser Wilhelm Platz 1               #
                  #                 D-45470 Muelheim/Ruhr               #
                  #                      Germany                        #
                  #                                                     #
                  #                  All rights reserved                #
                  #                        -***-                        #
                  #######################################################


                         Program Version 4.2.1 -  RELEASE  -


 With contributions from (in alphabetic order):
   Daniel Aravena         : Magnetic Suceptibility
   Michael Atanasov       : Ab Initio Ligand Field Theory (pilot matlab implementation)
   Alexander A. Auer      : GIAO ZORA, VPT2
   Ute Becker             : Parallelization
   Giovanni Bistoni       : ED, misc. LED, open-shell LED, HFLD
   Martin Brehm           : Molecular dynamics
   Dmytro Bykov           : SCF Hessian
   Vijay G. Chilkuri      : MRCI spin determinant printing, contributions to CSF-ICE
   Dipayan Datta          : RHF DLPNO-CCSD density
   Achintya Kumar Dutta   : EOM-CC, STEOM-CC
   Dmitry Ganyushin       : Spin-Orbit,Spin-Spin,Magnetic field MRCI
   Miquel Garcia          : C-PCM Hessian, Gaussian charge scheme
   Yang Guo               : DLPNO-NEVPT2, CIM, IAO-localization
   Andreas Hansen         : Spin unrestricted coupled pair/coupled cluster methods
   Benjamin Helmich-Paris : CASSCF linear response (MC-RPA)
   Lee Huntington         : MR-EOM, pCC
   Robert Izsak           : Overlap fitted RIJCOSX, COSX-SCS-MP3, EOM
   Christian Kollmar      : KDIIS, OOCD, Brueckner-CCSD(T), CCSD density
   Simone Kossmann        : Meta GGA functionals, TD-DFT gradient, OOMP2, MP2 Hessian
   Martin Krupicka        : AUTO-CI
   Lucas Lang             : DCDCAS
   Dagmar Lenk            : GEPOL surface, SMD
   Dimitrios Liakos       : Extrapolation schemes; Compound Job, initial MDCI parallelization
   Dimitrios Manganas     : Further ROCIS development; embedding schemes
   Dimitrios Pantazis     : SARC Basis sets
   Taras Petrenko         : DFT Hessian,TD-DFT gradient, ASA, ECA, R-Raman, ABS, FL, XAS/XES, NRVS
   Peter Pinski           : DLPNO-MP2, DLPNO-MP2 Gradient
   Christoph Reimann      : Effective Core Potentials
   Marius Retegan         : Local ZFS, SOC
   Christoph Riplinger    : Optimizer, TS searches, QM/MM, DLPNO-CCSD(T), (RO)-DLPNO pert. Triples
   Tobias Risthaus        : Range-separated hybrids, TD-DFT gradient, RPA, STAB
   Michael Roemelt        : Original ROCIS implementation
   Masaaki Saitow         : Open-shell DLPNO-CCSD energy and density
   Barbara Sandhoefer     : DKH picture change effects
   Avijit Sen             : IP-ROCIS
   Kantharuban Sivalingam : CASSCF convergence, NEVPT2, FIC-MRCI
   Bernardo de Souza      : ESD, SOC TD-DFT
   Georgi Stoychev        : AutoAux, RI-MP2 NMR
   Willem Van den Heuvel  : Paramagnetic NMR
   Boris Wezisla          : Elementary symmetry handling
   Frank Wennmohs         : Technical directorship


 We gratefully acknowledge several colleagues who have allowed us to
 interface, adapt or use parts of their codes:
   Stefan Grimme, W. Hujo, H. Kruse,             : VdW corrections, initial TS optimization,
                  C. Bannwarth                     DFT functionals, gCP, sTDA/sTD-DF
   Ed Valeev, F. Pavosevic, A. Kumar             : LibInt (2-el integral package), F12 methods
   Garnet Chan, S. Sharma, J. Yang, R. Olivares  : DMRG
   Ulf Ekstrom                                   : XCFun DFT Library
   Mihaly Kallay                                 : mrcc  (arbitrary order and MRCC methods)
   Andreas Klamt, Michael Diedenhofen            : otool_cosmo (COSMO solvation model)
   Jiri Pittner, Ondrej Demel                    : Mk-CCSD
   Frank Weinhold                                : gennbo (NPA and NBO analysis)
   Christopher J. Cramer and Donald G. Truhlar   : smd solvation model
   Lars Goerigk                                  : TD-DFT with DH, B97 family of functionals
   V. Asgeirsson, H. Jonsson                     : NEB implementation
   FAccTs GmbH                                   : IRC, NEB, NEB-TS, Multilevel, MM, QM/MM, CI optimization
   S Lehtola, MJT Oliveira, MAL Marques          : LibXC Library


 Your calculation uses the libint2 library for the computation of 2-el integrals
 For citations please refer to: http://libint.valeyev.net

 Your ORCA version has been built with support for libXC version: 4.2.3
 For citations please refer to: https://tddft.org/programs/libxc/

 This ORCA versions uses:
   CBLAS   interface :  Fast vector & matrix operations
   LAPACKE interface :  Fast linear algebra routines
   SCALAPACK package :  Parallel linear algebra routines



Reading of a custom basis requested
Basis file         : system.bas
READING GTO-BASIS: OXYGEN
READING GTO-BASIS: CARBON
READING GTO-BASIS: HYDROGEN
Basis successfully read

Reading of a custom AuxJ basis requested
Basis file: system.aux
READING GTO-BASIS: OXYGEN
READING GTO-BASIS: CARBON
READING GTO-BASIS: HYDROGEN
Basis read successfully!

----- Orbital basis set information -----
----- AuxJ basis set information -----
================================================================================
                                        WARNINGS
                       Please study these warnings very carefully!
================================================================================


INFO   : the flag for use of LIBINT has been found!

================================================================================
                                       INPUT FILE
================================================================================
NAME = temp.inp
|  1> * xyz  0 1
|  2>   O    0.176612    9.365961    3.821232
|  3>   C    0.433991    9.407451    2.644050
|  4>   C    0.713961   10.708816    1.938522
|  5>   C    0.490824    8.161112    1.799478
|  6>   H    0.771158   11.521247    2.660248
|  7>   H    1.642611   10.648604    1.364065
|  8>   H   -0.087821   10.916206    1.222610
|  9>   H    0.169423    7.299999    2.381938
| 10>   H    1.514532    8.001253    1.447966
| 11>   H   -0.134947    8.269051    0.909228
| 12> * 
| 13> 
| 14> %pal
| 15> nprocs 6
| 16> end
| 17> 
| 18> %basis
| 19> GTOName ="system.bas";
| 20> GTOAuxName ="system.aux";
| 21> end
| 22>  
| 23> 
| 24> %pointcharges "background.crg"
| 25> ! DFT PBE0 TightSCF  
| 26> 
| 27> 
| 28>                          ****END OF INPUT****
================================================================================

                       ****************************
                       * Single Point Calculation *
                       ****************************

---------------------------------
CARTESIAN COORDINATES (ANGSTROEM)
---------------------------------
  O      0.176612    9.365961    3.821232
  C      0.433991    9.407451    2.644050
  C      0.713961   10.708816    1.938522
  C      0.490824    8.161112    1.799478
  H      0.771158   11.521247    2.660248
  H      1.642611   10.648604    1.364065
  H     -0.087821   10.916206    1.222610
  H      0.169423    7.299999    2.381938
  H      1.514532    8.001253    1.447966
  H     -0.134947    8.269051    0.909228

----------------------------
CARTESIAN COORDINATES (A.U.)
----------------------------
  NO LB      ZA    FRAG     MASS         X           Y           Z
   0 O     8.0000    0    15.999    0.333748   17.699101    7.221082
   1 C     6.0000    0    12.011    0.820124   17.777506    4.996530
   2 C     6.0000    0    12.011    1.349191   20.236729    3.663276
   3 C     6.0000    0    12.011    0.927523   15.422267    3.400521
   4 H     1.0000    0     1.008    1.457277   21.772002    5.027140
   5 H     1.0000    0     1.008    3.104085   20.122945    2.577709
   6 H     1.0000    0     1.008   -0.165958   20.628640    2.310398
   7 H     1.0000    0     1.008    0.320163   13.794999    4.501210
   8 H     1.0000    0     1.008    2.862051   15.120177    2.736259
   9 H     1.0000    0     1.008   -0.255013   15.626242    1.718192

--------------------------------
INTERNAL COORDINATES (ANGSTROEM)
--------------------------------
 O      0   0   0     0.000000000000     0.00000000     0.00000000
 C      1   0   0     1.205704288317     0.00000000     0.00000000
 C      2   1   0     1.506553624306   121.77750213     0.00000000
 C      2   1   3     1.506616326738   121.79625087   180.09358965
 H      3   2   1     1.088211397499   110.12502257     7.24845780
 H      3   2   1     1.093625691127   110.86904260   129.44076064
 H      3   2   1     1.094712281546   109.49935866   247.01701694
 H      4   2   1     1.088151576376   110.08653485     6.00341550
 H      4   2   1     1.094117752022   109.64917033   245.55768824
 H      4   2   1     1.093519654447   110.67889383   128.04340545

---------------------------
INTERNAL COORDINATES (A.U.)
---------------------------
 O      0   0   0     0.000000000000     0.00000000     0.00000000
 C      1   0   0     2.278450903413     0.00000000     0.00000000
 C      2   1   0     2.846973756004   121.77750213     0.00000000
 C      2   1   3     2.847092246430   121.79625087   180.09358965
 H      3   2   1     2.056421517084   110.12502257     7.24845780
 H      3   2   1     2.066653049250   110.86904260   129.44076064
 H      3   2   1     2.068706407562   109.49935866   247.01701694
 H      4   2   1     2.056308471546   110.08653485     6.00341550
 H      4   2   1     2.067582909583   109.64917033   245.55768824
 H      4   2   1     2.066452668965   110.67889383   128.04340545

---------------------
BASIS SET INFORMATION
---------------------
There are 3 groups of distinct atoms

 Group   1 Type O   : 11s6p2d1f contracted to 5s3p2d1f pattern {62111/411/11/1}
 Group   2 Type C   : 11s6p2d1f contracted to 5s3p2d1f pattern {62111/411/11/1}
 Group   3 Type H   : 5s1p contracted to 3s1p pattern {311/1}

Atom   0O    basis set group =>   1
Atom   1C    basis set group =>   2
Atom   2C    basis set group =>   2
Atom   3C    basis set group =>   2
Atom   4H    basis set group =>   3
Atom   5H    basis set group =>   3
Atom   6H    basis set group =>   3
Atom   7H    basis set group =>   3
Atom   8H    basis set group =>   3
Atom   9H    basis set group =>   3
---------------------------------
AUXILIARY/J BASIS SET INFORMATION
---------------------------------
There are 3 groups of distinct atoms

 Group   1 Type O   : 8s6p5d3f1g contracted to 8s6p4d3f1g pattern {11111111/111111/2111/111/1}
 Group   2 Type C   : 8s6p5d3f1g contracted to 8s6p4d3f1g pattern {11111111/111111/2111/111/1}
 Group   3 Type H   : 4s3p2d contracted to 4s2p1d pattern {1111/21/2}

Atom   0O    basis set group =>   1
Atom   1C    basis set group =>   2
Atom   2C    basis set group =>   2
Atom   3C    basis set group =>   2
Atom   4H    basis set group =>   3
Atom   5H    basis set group =>   3
Atom   6H    basis set group =>   3
Atom   7H    basis set group =>   3
Atom   8H    basis set group =>   3
Atom   9H    basis set group =>   3

Checking for AutoStart:
The File: temp.gbw exists
Trying to determine its content:
     ... Fine, the file contains calculation information
     ... Fine, the calculation information was read
     ... Fine, the file contains a basis set
     ... Fine, the basis set was read
     ... Fine, the file contains a geometry
     ... Fine, the geometry was read
     ... Fine, the file contains a set of orbitals
     ... Fine, the orbitals can be read
     => possible old guess file was deleted
     => GBW file was renamed to GES file
     => GES file is set as startup file
     => Guess is set to MORead
     ... now leaving AutoStart



           ************************************************************
           *        Program running with 6 parallel MPI-processes     *
           *              working on a common directory               *
           ************************************************************
------------------------------------------------------------------------------
                           ORCA GTO INTEGRAL CALCULATION
------------------------------------------------------------------------------

                         BASIS SET STATISTICS AND STARTUP INFO

 # of primitive gaussian shells          ...  116
 # of primitive gaussian functions       ...  232
 # of contracted shells                  ...   68
 # of contracted basis functions         ...  160
 Highest angular momentum                ...    3
 Maximum contraction depth               ...    6
 Integral package used                   ... LIBINT
 Integral threshhold            Thresh   ...  2.500e-11
 Primitive cut-off              TCut     ...  2.500e-12


------------------------------ INTEGRAL EVALUATION ----------------------------


 * One electron integrals 
 Pre-screening matrix                    ... done
 Shell pair data                         ... done (   0.001 sec)

ENUC WAS=  0.000000000


           ************************************************************
           *        Program running with 6 parallel MPI-processes     *
           *              working on a common directory               *
           ************************************************************
------------------------------------------------------------------------------
                            ORCA POINT-CHARGE CORRECTION
------------------------------------------------------------------------------

BaseName                           ... temp
Point charge file                  ... background.crg

Reading the GBW file               ... done
Reading the one-electron matrix    ... done
Reading the point charges          ... done
Number of point charges            ... 297
Reading the nuclear-repulsion      ... done
Charge-Nuclei interaction          ... done
The nuclear repulsion file was updated
Doing the point charge correction  ... done
Storing the one-electron matrix    ... done

ENUC IS = 119.735799573


           ************************************************************
           *        Program running with 6 parallel MPI-processes     *
           *              working on a common directory               *
           ************************************************************
-------------------------------------------------------------------------------
                                 ORCA SCF
-------------------------------------------------------------------------------

------------
SCF SETTINGS
------------
Hamiltonian:
 Density Functional     Method          .... DFT(GTOs)
 Exchange Functional    Exchange        .... PBE
   PBE kappa parameter   XKappa         ....  0.804000
   PBE mue parameter    XMuePBE         ....  0.219520
 Correlation Functional Correlation     .... PBE
   PBE beta parameter  CBetaPBE         ....  0.066725
 LDA part of GGA corr.  LDAOpt          .... PW91-LDA
 Gradients option       PostSCFGGA      .... off
 Hybrid DFT is turned on
   Fraction HF Exchange ScalHFX         ....  0.250000
   Scaling of DF-GGA-X  ScalDFX         ....  0.750000
   Scaling of DF-GGA-C  ScalDFC         ....  1.000000
   Scaling of DF-LDA-C  ScalLDAC        ....  1.000000
   Perturbative correction              ....  0.000000
   Density functional embedding theory  .... OFF
   NL short-range parameter             ....  6.900000


General Settings:
 Integral files         IntName         .... temp
 Hartree-Fock type      HFTyp           .... RHF
 Total Charge           Charge          ....    0
 Multiplicity           Mult            ....    1
 Number of Electrons    NEL             ....   32
 Basis Dimension        Dim             ....  160
 Nuclear Repulsion      ENuc            ....    119.7357995729 Eh

Convergence Acceleration:
 DIIS                   CNVDIIS         .... on
   Start iteration      DIISMaxIt       ....    12
   Startup error        DIISStart       ....  0.200000
   # of expansion vecs  DIISMaxEq       ....     5
   Bias factor          DIISBfac        ....   1.050
   Max. coefficient     DIISMaxC        ....  10.000
 Newton-Raphson         CNVNR           .... off
 SOSCF                  CNVSOSCF        .... on
   Start iteration      SOSCFMaxIt      ....   150
   Startup grad/error   SOSCFStart      ....  0.003300
 Level Shifting         CNVShift        .... on
   Level shift para.    LevelShift      ....    0.2500
   Turn off err/grad.   ShiftErr        ....    0.0010
 Zerner damping         CNVZerner       .... off
 Static damping         CNVDamp         .... on
   Fraction old density DampFac         ....    0.7000
   Max. Damping (<1)    DampMax         ....    0.9800
   Min. Damping (>=0)   DampMin         ....    0.0000
   Turn off err/grad.   DampErr         ....    0.1000
 Fernandez-Rico         CNVRico         .... off

SCF Procedure:
 Maximum # iterations   MaxIter         ....   125
 SCF integral mode      SCFMode         .... Direct
   Integral package                     .... LIBINT
 Reset frequency        DirectResetFreq ....    20
 Integral Threshold     Thresh          ....  2.500e-11 Eh
 Primitive CutOff       TCut            ....  2.500e-12 Eh

Convergence Tolerance:
 Convergence Check Mode ConvCheckMode   .... Total+1el-Energy
 Convergence forced     ConvForced      .... 0
 Energy Change          TolE            ....  1.000e-08 Eh
 1-El. energy change                    ....  1.000e-05 Eh
 Orbital Gradient       TolG            ....  1.000e-05
 Orbital Rotation angle TolX            ....  1.000e-05
 DIIS Error             TolErr          ....  5.000e-07


Diagonalization of the overlap matrix:
Smallest eigenvalue                        ... 3.783e-04
Time for diagonalization                   ...    0.002 sec
Threshold for overlap eigenvalues          ... 1.000e-08
Number of eigenvalues below threshold      ... 0
Time for construction of square roots      ...    0.002 sec
Total time needed                          ...    0.004 sec

---------------------
INITIAL GUESS: MOREAD
---------------------
Guess MOs are being read from file: temp.ges
Input Geometry matches current geometry (good)
Input basis set matches current basis set (good)
MOs were renormalized
MOs were reorthogonalized (Cholesky)
                      ------------------
                      INITIAL GUESS DONE (   0.0 sec)
                      ------------------
-------------------
DFT GRID GENERATION
-------------------

General Integration Accuracy     IntAcc      ...  4.340
Radial Grid Type                 RadialGrid  ... Gauss-Chebyshev
Angular Grid (max. acc.)         AngularGrid ... Lebedev-110
Angular grid pruning method      GridPruning ... 3 (G Style)
Weight generation scheme         WeightScheme... Becke
Basis function cutoff            BFCut       ...    1.0000e-11
Integration weight cutoff        WCut        ...    1.0000e-14
Grids for H and He will be reduced by one unit

# of grid points (after initial pruning)     ...  11448 (   0.0 sec)
# of grid points (after weights+screening)   ...  10907 (   0.0 sec)
nearest neighbour list constructed           ...    0.0 sec
Grid point re-assignment to atoms done       ...    0.0 sec
Grid point division into batches done        ...    0.0 sec
Reduced shell lists constructed in    0.0 sec

Total number of grid points                  ...    10907
Total number of batches                      ...      177
Average number of points per batch           ...       61
Average number of grid points per atom       ...     1091
Average number of shells per batch           ...    51.55 (75.81%)
Average number of basis functions per batch  ...   129.10 (80.69%)
Average number of large shells per batch     ...    42.39 (82.23%)
Average number of large basis fcns per batch ...   106.19 (82.26%)
Maximum spatial batch extension              ...  14.68, 19.43, 14.55 au
Average spatial batch extension              ...   0.75,  0.76,  0.67 au

Time for grid setup =    0.026 sec

--------------
SCF ITERATIONS
--------------
ITER       Energy         Delta-E        Max-DP      RMS-DP      [F,P]     Damp
               ***  Starting incremental Fock matrix formation  ***
                      *** Initiating the SOSCF procedure ***
                      *** Re-Reading the Fockian *** 
                      *** Removing any level shift *** 
ITER      Energy       Delta-E        Grad      Rot      Max-DP    RMS-DP
  0   -193.01471279 -193.0147127933  0.000000  0.000000  0.000001  0.000000
               *** Restarting incremental Fock matrix formation ***
                 **** Energy Check signals convergence ****
              ***Rediagonalizing the Fockian in SOSCF/NRSCF***

               *****************************************************
               *                     SUCCESS                       *
               *           SCF CONVERGED AFTER   1 CYCLES          *
               *****************************************************

Setting up the final grid:

General Integration Accuracy     IntAcc      ...  4.670
Radial Grid Type                 RadialGrid  ... Gauss-Chebyshev
Angular Grid (max. acc.)         AngularGrid ... Lebedev-302
Angular grid pruning method      GridPruning ... 3 (G Style)
Weight generation scheme         WeightScheme... Becke
Basis function cutoff            BFCut       ...    1.0000e-11
Integration weight cutoff        WCut        ...    1.0000e-14
Grids for H and He will be reduced by one unit

# of grid points (after initial pruning)     ...  45212 (   0.0 sec)
# of grid points (after weights+screening)   ...  42620 (   0.0 sec)
nearest neighbour list constructed           ...    0.0 sec
Grid point re-assignment to atoms done       ...    0.0 sec
Grid point division into batches done        ...    0.1 sec
Reduced shell lists constructed in    0.2 sec

Total number of grid points                  ...    42620
Total number of batches                      ...      671
Average number of points per batch           ...       63
Average number of grid points per atom       ...     4262
Average number of shells per batch           ...    48.22 (70.91%)
Average number of basis functions per batch  ...   120.77 (75.48%)
Average number of large shells per batch     ...    39.50 (81.92%)
Average number of large basis fcns per batch ...    98.53 (81.59%)
Maximum spatial batch extension              ...  16.56, 15.13, 14.38 au
Average spatial batch extension              ...   0.53,  0.50,  0.48 au

Final grid set up in    0.2 sec
Final integration                            ... done (   0.1 sec)
Change in XC energy                          ...    -0.000109664
Integrated number of electrons               ...    32.000043915
Previous integrated no of electrons          ...    31.999337192

----------------
TOTAL SCF ENERGY
----------------

Total Energy       :         -193.01482246 Eh           -5252.20034 eV

Components:
Nuclear Repulsion  :          119.73579957 Eh            3258.17675 eV
Electronic Energy  :         -312.75062203 Eh           -8510.37708 eV
One Electron Energy:         -498.27572151 Eh          -13558.77170 eV
Two Electron Energy:          185.52509947 Eh            5048.39461 eV

Virial components:
Potential Energy   :         -385.13753802 Eh          -10480.12521 eV
Kinetic Energy     :          192.12271556 Eh            5227.92487 eV
Virial Ratio       :            2.00464342


DFT components:
N(Alpha)           :       16.000021957655 electrons
N(Beta)            :       16.000021957655 electrons
N(Total)           :       32.000043915311 electrons
E(X)               :      -19.370122978843 Eh       
E(C)               :       -1.042398008863 Eh       
E(XC)              :      -20.412520987706 Eh       
DFET-embed. en.    :        0.000000000000 Eh       

---------------
SCF CONVERGENCE
---------------

  Last Energy change         ...   -5.6843e-12  Tolerance :   1.0000e-08
  Last MAX-Density change    ...    5.1716e-07  Tolerance :   1.0000e-07
  Last RMS-Density change    ...    1.6651e-08  Tolerance :   5.0000e-09
  Last Orbital Gradient      ...    2.2743e-07  Tolerance :   1.0000e-05
  Last Orbital Rotation      ...    6.3644e-07  Tolerance :   1.0000e-05

             **** THE GBW FILE WAS UPDATED (temp.gbw) ****
             **** DENSITY FILE WAS UPDATED (temp.scfp) ****
             **** ENERGY FILE WAS UPDATED (temp.en.tmp) ****
             **** THE GBW FILE WAS UPDATED (temp.gbw) ****
             **** DENSITY FILE WAS UPDATED (temp.scfp) ****
----------------
ORBITAL ENERGIES
----------------

  NO   OCC          E(Eh)            E(eV) 
   0   2.0000     -19.191050      -522.2150 
   1   2.0000     -10.312656      -280.6216 
   2   2.0000     -10.217604      -278.0351 
   3   2.0000     -10.217162      -278.0231 
   4   2.0000      -1.074574       -29.2406 
   5   2.0000      -0.789543       -21.4846 
   6   2.0000      -0.727315       -19.7912 
   7   2.0000      -0.548530       -14.9262 
   8   2.0000      -0.474318       -12.9069 
   9   2.0000      -0.471906       -12.8412 
  10   2.0000      -0.468754       -12.7554 
  11   2.0000      -0.408488       -11.1155 
  12   2.0000      -0.407244       -11.0817 
  13   2.0000      -0.386557       -10.5188 
  14   2.0000      -0.365937        -9.9577 
  15   2.0000      -0.263537        -7.1712 
  16   0.0000      -0.008599        -0.2340 
  17   0.0000       0.052943         1.4407 
  18   0.0000       0.101658         2.7663 
  19   0.0000       0.113008         3.0751 
  20   0.0000       0.124998         3.4014 
  21   0.0000       0.142039         3.8651 
  22   0.0000       0.151781         4.1302 
  23   0.0000       0.155935         4.2432 
  24   0.0000       0.180176         4.9028 
  25   0.0000       0.197755         5.3812 
  26   0.0000       0.218977         5.9587 
  27   0.0000       0.237195         6.4544 
  28   0.0000       0.239460         6.5160 
  29   0.0000       0.307082         8.3561 
  30   0.0000       0.315327         8.5805 
  31   0.0000       0.321385         8.7453 
  32   0.0000       0.384135        10.4528 
  33   0.0000       0.389917        10.6102 
  34   0.0000       0.420119        11.4320 
  35   0.0000       0.429356        11.6834 
  36   0.0000       0.441631        12.0174 
  37   0.0000       0.447434        12.1753 
  38   0.0000       0.459292        12.4980 
  39   0.0000       0.479138        13.0380 
  40   0.0000       0.480512        13.0754 
  41   0.0000       0.505926        13.7669 
  42   0.0000       0.555094        15.1049 
  43   0.0000       0.582962        15.8632 
  44   0.0000       0.595708        16.2101 
  45   0.0000       0.630263        17.1503 
  46   0.0000       0.672643        18.3035 
  47   0.0000       0.680027        18.5045 
  48   0.0000       0.740875        20.1602 
  49   0.0000       0.805653        21.9229 
  50   0.0000       0.834817        22.7165 
  51   0.0000       0.849171        23.1071 
  52   0.0000       0.917359        24.9626 
  53   0.0000       0.954225        25.9658 
  54   0.0000       0.988584        26.9007 
  55   0.0000       0.992562        27.0090 
  56   0.0000       1.010770        27.5044 
  57   0.0000       1.064076        28.9550 
  58   0.0000       1.121116        30.5071 
  59   0.0000       1.122651        30.5489 
  60   0.0000       1.146370        31.1943 
  61   0.0000       1.240141        33.7460 
  62   0.0000       1.401323        38.1319 
  63   0.0000       1.415791        38.5256 
  64   0.0000       1.457216        39.6529 
  65   0.0000       1.512646        41.1612 
  66   0.0000       1.520424        41.3728 
  67   0.0000       1.529057        41.6078 
  68   0.0000       1.539554        41.8934 
  69   0.0000       1.542347        41.9694 
  70   0.0000       1.573598        42.8198 
  71   0.0000       1.578077        42.9417 
  72   0.0000       1.595678        43.4206 
  73   0.0000       1.644278        44.7431 
  74   0.0000       1.664110        45.2827 
  75   0.0000       1.716933        46.7201 
  76   0.0000       1.859137        50.5897 
  77   0.0000       1.879124        51.1336 
  78   0.0000       1.888493        51.3885 
  79   0.0000       1.966284        53.5053 
  80   0.0000       2.014960        54.8299 
  81   0.0000       2.035529        55.3896 
  82   0.0000       2.054379        55.9025 
  83   0.0000       2.100015        57.1443 
  84   0.0000       2.125267        57.8314 
  85   0.0000       2.175335        59.1939 
  86   0.0000       2.181343        59.3574 
  87   0.0000       2.212609        60.2081 
  88   0.0000       2.222996        60.4908 
  89   0.0000       2.338362        63.6301 
  90   0.0000       2.359982        64.2184 
  91   0.0000       2.361135        64.2498 
  92   0.0000       2.406021        65.4711 
  93   0.0000       2.465578        67.0918 
  94   0.0000       2.485567        67.6357 
  95   0.0000       2.530888        68.8690 
  96   0.0000       2.538782        69.0838 
  97   0.0000       2.570952        69.9591 
  98   0.0000       2.571926        69.9857 
  99   0.0000       2.666574        72.5612 
 100   0.0000       2.712305        73.8056 
 101   0.0000       2.765532        75.2539 
 102   0.0000       2.797701        76.1293 
 103   0.0000       2.820155        76.7403 
 104   0.0000       2.858403        77.7811 
 105   0.0000       2.918135        79.4065 
 106   0.0000       2.982518        81.1585 
 107   0.0000       2.988734        81.3276 
 108   0.0000       3.015443        82.0544 
 109   0.0000       3.083848        83.9158 
 110   0.0000       3.084957        83.9460 
 111   0.0000       3.109821        84.6225 
 112   0.0000       3.120124        84.9029 
 113   0.0000       3.134826        85.3029 
 114   0.0000       3.153452        85.8098 
 115   0.0000       3.239396        88.1484 
 116   0.0000       3.300257        89.8046 
 117   0.0000       3.311826        90.1194 
 118   0.0000       3.324848        90.4737 
 119   0.0000       3.384801        92.1051 
 120   0.0000       3.392862        92.3245 
 121   0.0000       3.433271        93.4241 
 122   0.0000       3.462725        94.2255 
 123   0.0000       3.501326        95.2759 
 124   0.0000       3.536457        96.2319 
 125   0.0000       3.552156        96.6591 
 126   0.0000       3.685739       100.2941 
 127   0.0000       3.774893       102.7201 
 128   0.0000       3.871925       105.3604 
 129   0.0000       3.874317       105.4255 
 130   0.0000       3.910089       106.3989 
 131   0.0000       3.990640       108.5908 
 132   0.0000       3.995276       108.7170 
 133   0.0000       4.019659       109.3805 
 134   0.0000       4.075471       110.8992 
 135   0.0000       4.333469       117.9197 
 136   0.0000       4.376020       119.0776 
 137   0.0000       4.395431       119.6058 
 138   0.0000       4.413993       120.1109 
 139   0.0000       4.455925       121.2519 
 140   0.0000       4.540475       123.5526 
 141   0.0000       4.675047       127.2145 
 142   0.0000       4.782289       130.1327 
 143   0.0000       4.799031       130.5883 
 144   0.0000       5.208066       141.7187 
 145   0.0000       5.212552       141.8408 
 146   0.0000       5.620260       152.9350 
 147   0.0000       5.704035       155.2147 
 148   0.0000       6.168971       167.8662 
 149   0.0000       6.365124       173.2038 
 150   0.0000       6.407863       174.3668 
 151   0.0000       6.529864       177.6866 
 152   0.0000       6.556572       178.4134 
 153   0.0000       6.825339       185.7269 
 154   0.0000       7.011890       190.8032 
 155   0.0000       7.092702       193.0022 
 156   0.0000      22.399444       609.5199 
 157   0.0000      22.413929       609.9140 
 158   0.0000      23.060731       627.5144 
 159   0.0000      43.928243      1195.3483 

                    ********************************
                    * MULLIKEN POPULATION ANALYSIS *
                    ********************************

-----------------------
MULLIKEN ATOMIC CHARGES
-----------------------
   0 O :   -0.361839
   1 C :    0.228914
   2 C :   -0.394006
   3 C :   -0.349101
   4 H :    0.162507
   5 H :    0.123907
   6 H :    0.166749
   7 H :    0.129473
   8 H :    0.142982
   9 H :    0.150415
Sum of atomic charges:   -0.0000000

--------------------------------
MULLIKEN REDUCED ORBITAL CHARGES
--------------------------------
  0 O s       :     3.796504  s :     3.796504
      pz      :     1.371912  p :     4.533048
      px      :     1.350143
      py      :     1.810993
      dz2     :     0.010298  d :     0.030398
      dxz     :     0.010516
      dyz     :     0.008249
      dx2y2   :     0.000838
      dxy     :     0.000497
      f0      :     0.000618  f :     0.001890
      f+1     :     0.000560
      f-1     :     0.000547
      f+2     :     0.000075
      f-2     :     0.000061
      f+3     :     0.000015
      f-3     :     0.000013
  1 C s       :     3.184464  s :     3.184464
      pz      :     0.767936  p :     2.354039
      px      :     0.663063
      py      :     0.923040
      dz2     :     0.042369  d :     0.214408
      dxz     :     0.045243
      dyz     :     0.087826
      dx2y2   :     0.018468
      dxy     :     0.020502
      f0      :     0.003401  f :     0.018175
      f+1     :     0.003144
      f-1     :     0.007020
      f+2     :     0.001254
      f-2     :     0.001734
      f+3     :     0.000755
      f-3     :     0.000867
  2 C s       :     3.202979  s :     3.202979
      pz      :     1.062777  p :     3.139612
      px      :     1.062973
      py      :     1.013861
      dz2     :     0.006139  d :     0.048219
      dxz     :     0.013334
      dyz     :     0.012744
      dx2y2   :     0.010960
      dxy     :     0.005041
      f0      :     0.000138  f :     0.003196
      f+1     :     0.000075
      f-1     :     0.000787
      f+2     :     0.001444
      f-2     :     0.000372
      f+3     :     0.000208
      f-3     :     0.000172
  3 C s       :     3.181183  s :     3.181183
      pz      :     1.028997  p :     3.118857
      px      :     1.085012
      py      :     1.004848
      dz2     :     0.009689  d :     0.045957
      dxz     :     0.009343
      dyz     :     0.011432
      dx2y2   :     0.009746
      dxy     :     0.005747
      f0      :     0.000254  f :     0.003104
      f+1     :     0.000281
      f-1     :     0.000678
      f+2     :     0.001074
      f-2     :     0.000398
      f+3     :     0.000289
      f-3     :     0.000131
  4 H s       :     0.815810  s :     0.815810
      pz      :     0.007983  p :     0.021683
      px      :     0.004411
      py      :     0.009290
  5 H s       :     0.854843  s :     0.854843
      pz      :     0.007098  p :     0.021250
      px      :     0.009687
      py      :     0.004465
  6 H s       :     0.811646  s :     0.811646
      pz      :     0.007832  p :     0.021606
      px      :     0.008947
      py      :     0.004827
  7 H s       :     0.849111  s :     0.849111
      pz      :     0.006629  p :     0.021416
      px      :     0.005036
      py      :     0.009750
  8 H s       :     0.835022  s :     0.835022
      pz      :     0.005665  p :     0.021996
      px      :     0.011595
      py      :     0.004736
  9 H s       :     0.828109  s :     0.828109
      pz      :     0.009826  p :     0.021477
      px      :     0.007323
      py      :     0.004327


                     *******************************
                     * LOEWDIN POPULATION ANALYSIS *
                     *******************************

----------------------
LOEWDIN ATOMIC CHARGES
----------------------
   0 O :    0.090535
   1 C :   -0.379177
   2 C :   -0.273724
   3 C :   -0.270092
   4 H :    0.135723
   5 H :    0.132943
   6 H :    0.148216
   7 H :    0.128700
   8 H :    0.144869
   9 H :    0.142007

-------------------------------
LOEWDIN REDUCED ORBITAL CHARGES
-------------------------------
  0 O s       :     3.396160  s :     3.396160
      pz      :     1.504531  p :     4.438573
      px      :     1.277593
      py      :     1.656450
      dz2     :     0.027794  d :     0.068563
      dxz     :     0.014040
      dyz     :     0.024647
      dx2y2   :     0.000861
      dxy     :     0.001221
      f0      :     0.002269  f :     0.006169
      f+1     :     0.001316
      f-1     :     0.002128
      f+2     :     0.000148
      f-2     :     0.000282
      f+3     :     0.000013
      f-3     :     0.000013
  1 C s       :     2.776637  s :     2.776637
      pz      :     0.991412  p :     2.693213
      px      :     0.674005
      py      :     1.027796
      dz2     :     0.201700  d :     0.795681
      dxz     :     0.136120
      dyz     :     0.316669
      dx2y2   :     0.065284
      dxy     :     0.075907
      f0      :     0.021991  f :     0.113646
      f+1     :     0.018596
      f-1     :     0.046321
      f+2     :     0.006004
      f-2     :     0.010088
      f+3     :     0.004954
      f-3     :     0.005693
  2 C s       :     2.836753  s :     2.836753
      pz      :     1.072244  p :     3.191986
      px      :     1.067703
      py      :     1.052039
      dz2     :     0.020598  d :     0.222100
      dxz     :     0.052734
      dyz     :     0.064756
      dx2y2   :     0.062908
      dxy     :     0.021105
      f0      :     0.003521  f :     0.022885
      f+1     :     0.001443
      f-1     :     0.005440
      f+2     :     0.004365
      f-2     :     0.001970
      f+3     :     0.003185
      f-3     :     0.002961
  3 C s       :     2.836060  s :     2.836060
      pz      :     1.066635  p :     3.189451
      px      :     1.074811
      py      :     1.048004
      dz2     :     0.037004  d :     0.221630
      dxz     :     0.042149
      dyz     :     0.058424
      dx2y2   :     0.060040
      dxy     :     0.024013
      f0      :     0.003441  f :     0.022952
      f+1     :     0.002598
      f-1     :     0.004829
      f+2     :     0.003770
      f-2     :     0.002805
      f+3     :     0.003162
      f-3     :     0.002348
  4 H s       :     0.800974  s :     0.800974
      pz      :     0.024533  p :     0.063302
      px      :     0.013085
      py      :     0.025685
  5 H s       :     0.804586  s :     0.804586
      pz      :     0.020159  p :     0.062471
      px      :     0.029225
      py      :     0.013087
  6 H s       :     0.788539  s :     0.788539
      pz      :     0.023167  p :     0.063245
      px      :     0.026333
      py      :     0.013745
  7 H s       :     0.808645  s :     0.808645
      pz      :     0.020202  p :     0.062656
      px      :     0.015287
      py      :     0.027167
  8 H s       :     0.792087  s :     0.792087
      pz      :     0.016065  p :     0.063044
      px      :     0.033645
      py      :     0.013334
  9 H s       :     0.794838  s :     0.794838
      pz      :     0.028934  p :     0.063155
      px      :     0.021174
      py      :     0.013046


                      *****************************
                      * MAYER POPULATION ANALYSIS *
                      *****************************

  NA   - Mulliken gross atomic population
  ZA   - Total nuclear charge
  QA   - Mulliken gross atomic charge
  VA   - Mayer's total valence
  BVA  - Mayer's bonded valence
  FA   - Mayer's free valence

  ATOM       NA         ZA         QA         VA         BVA        FA
  0 O      8.3618     8.0000    -0.3618     2.1029     2.1029     0.0000
  1 C      5.7711     6.0000     0.2289     4.1576     4.1576     0.0000
  2 C      6.3940     6.0000    -0.3940     3.7602     3.7602    -0.0000
  3 C      6.3491     6.0000    -0.3491     3.7748     3.7748    -0.0000
  4 H      0.8375     1.0000     0.1625     0.9852     0.9852    -0.0000
  5 H      0.8761     1.0000     0.1239     0.9674     0.9674     0.0000
  6 H      0.8333     1.0000     0.1667     0.9689     0.9689     0.0000
  7 H      0.8705     1.0000     0.1295     0.9947     0.9947    -0.0000
  8 H      0.8570     1.0000     0.1430     0.9747     0.9747     0.0000
  9 H      0.8496     1.0000     0.1504     0.9663     0.9663    -0.0000

  Mayer bond orders larger than 0.100000
B(  0-O ,  1-C ) :   2.0788 B(  1-C ,  2-C ) :   0.9986 B(  1-C ,  3-C ) :   1.0163 
B(  2-C ,  4-H ) :   0.9594 B(  2-C ,  5-H ) :   0.9445 B(  2-C ,  6-H ) :   0.9322 
B(  3-C ,  7-H ) :   0.9644 B(  3-C ,  8-H ) :   0.9314 B(  3-C ,  9-H ) :   0.9375 


-------
TIMINGS
-------

Total SCF time: 0 days 0 hours 0 min 1 sec 

Total time                  ....       1.992 sec
Sum of individual times     ....       1.833 sec  ( 92.0%)

Fock matrix formation       ....       1.587 sec  ( 79.7%)
  XC integration            ....       0.161 sec  ( 10.2% of F)
    Basis function eval.    ....       0.028 sec  ( 17.5% of XC)
    Density eval.           ....       0.027 sec  ( 16.7% of XC)
    XC-Functional eval.     ....       0.006 sec  (  3.5% of XC)
    XC-Potential eval.      ....       0.052 sec  ( 32.4% of XC)
Diagonalization             ....       0.003 sec  (  0.2%)
Density matrix formation    ....       0.001 sec  (  0.1%)
Population analysis         ....       0.004 sec  (  0.2%)
Initial guess               ....       0.004 sec  (  0.2%)
Orbital Transformation      ....       0.000 sec  (  0.0%)
Orbital Orthonormalization  ....       0.002 sec  (  0.1%)
DIIS solution               ....       0.001 sec  (  0.0%)
SOSCF solution              ....       0.002 sec  (  0.1%)
Grid generation             ....       0.231 sec  ( 11.6%)

-------------------------   --------------------
FINAL SINGLE POINT ENERGY      -193.014822457762
-------------------------   --------------------


                            ***************************************
                            *     ORCA property calculations      *
                            ***************************************

                                    ---------------------
                                    Active property flags
                                    ---------------------
   (+) Dipole Moment


------------------------------------------------------------------------------
                       ORCA ELECTRIC PROPERTIES CALCULATION
------------------------------------------------------------------------------

Dipole Moment Calculation                       ... on
Quadrupole Moment Calculation                   ... off
Polarizability Calculation                      ... off
GBWName                                         ... temp.gbw
Electron density file                           ... temp.scfp
The origin for moment calculation is the CENTER OF MASS  = ( 0.859452, 17.784354  4.810753)

-------------
DIPOLE MOMENT
-------------
                                X             Y             Z
Electronic contribution:     -0.86103      -0.09972       3.53311
Nuclear contribution   :      1.07117       0.17750      -4.94258
                        -----------------------------------------
Total Dipole Moment    :      0.21014       0.07779      -1.40947
                        -----------------------------------------
Magnitude (a.u.)       :      1.42717
Magnitude (Debye)      :      3.62759



--------------------
Rotational spectrum 
--------------------
 
Rotational constants in cm-1:     0.341602     0.286936     0.165457 
Rotational constants in MHz : 10240.984489  8602.114949  4960.286098 

 Dipole components along the rotational axes: 
x,y,z [a.u.] :     0.018758    -1.423736    -0.097187 
x,y,z [Debye]:     0.047679    -3.618850    -0.247031 

 

Timings for individual modules:

Sum of individual times         ...        2.672 sec (=   0.045 min)
GTO integral calculation        ...        0.511 sec (=   0.009 min)  19.1 %
SCF iterations                  ...        2.161 sec (=   0.036 min)  80.9 %
                             ****ORCA TERMINATED NORMALLY****
TOTAL RUN TIME: 0 days 0 hours 0 minutes 6 seconds 996 msec
