[Molden Format]
[Title]
 Molden file created by orca_2mkl for BaseName=temp

[Atoms] AU
O    1   8          0.3337483120        17.6991050504         7.2210819742 
C    2   6          0.8201241346        17.7775097877         4.9965303844 
C    3   6          1.3491907603        20.2367332380         3.6632756846 
C    4   6          0.9275229400        15.4222704077         3.4005206040 
H    5   1          1.4572774260        21.7720053307         5.0271401683 
H    6   1          3.1040849346        20.1229490480         2.5777092789 
H    7   1         -0.1659576388        20.6286435409         2.3103980686 
H    8   1          0.3201630708        13.7950026674         4.5012104880 
H    9   1          2.8620507011        15.1201806777         2.7362591912 
H   10   1         -0.2550128726        15.6262455569         1.7181919133 
[GTO]
  1 0
s   6 1.0 
    27032.3800000000         0.8598581393
     4052.3870000000         1.6055304059
      922.3272000000         2.7458780898
      261.2407000000         4.2987677378
       85.3546400000         5.8797670930
       31.0350400000         6.3163984679
s   2 1.0 
       12.2608600000         2.9812145398
        4.9987080000         0.9419560379
s   1 1.0 
        1.1703110000         0.8019292557
s   1 1.0 
        0.4647474000         0.4011647998
s   1 1.0 
        0.1850454000         0.2010799703
p   4 1.0 
       63.2749500000         3.0572013698
       14.6270500000         3.3844845670
        4.4501220000         2.9474258212
        1.5275800000         1.7118271901
p   1 1.0 
        0.5293512000         0.6436058239
p   1 1.0 
        0.1747842000         0.1610897108
d   1 1.0 
        2.3140000000        12.3767310624
d   1 1.0 
        0.6450000000         1.3234257612
f   1 1.0 
        1.4280000000        12.7097950062

  2 0
s   6 1.0 
    13575.3500000000         0.5435905009
     2035.2330000000         1.0145543008
      463.2256000000         1.7315731015
      131.2002000000         2.6910371555
       42.8530200000         3.6044547316
       15.5841900000         3.7025565440
s   2 1.0 
        6.2067140000         1.8383540114
        2.5764900000         0.5447576606
s   1 1.0 
        0.5769634000         0.4718145074
s   1 1.0 
        0.2297283000         0.2364944571
s   1 1.0 
        0.0951644400         0.1221141848
p   4 1.0 
       34.6972300000         1.3596652360
        7.9582620000         1.4512590746
        2.3780830000         1.2709231872
        0.8143321000         0.8025721831
p   1 1.0 
        0.2888755000         0.3018759228
p   1 1.0 
        0.1005682000         0.0807264648
d   1 1.0 
        1.0970000000         3.3522135855
d   1 1.0 
        0.3180000000         0.3838994974
f   1 1.0 
        0.7610000000         3.0840084332

  3 0
s   6 1.0 
    13575.3500000000         0.5435905009
     2035.2330000000         1.0145543008
      463.2256000000         1.7315731015
      131.2002000000         2.6910371555
       42.8530200000         3.6044547316
       15.5841900000         3.7025565440
s   2 1.0 
        6.2067140000         1.8383540114
        2.5764900000         0.5447576606
s   1 1.0 
        0.5769634000         0.4718145074
s   1 1.0 
        0.2297283000         0.2364944571
s   1 1.0 
        0.0951644400         0.1221141848
p   4 1.0 
       34.6972300000         1.3596652360
        7.9582620000         1.4512590746
        2.3780830000         1.2709231872
        0.8143321000         0.8025721831
p   1 1.0 
        0.2888755000         0.3018759228
p   1 1.0 
        0.1005682000         0.0807264648
d   1 1.0 
        1.0970000000         3.3522135855
d   1 1.0 
        0.3180000000         0.3838994974
f   1 1.0 
        0.7610000000         3.0840084332

  4 0
s   6 1.0 
    13575.3500000000         0.5435905009
     2035.2330000000         1.0145543008
      463.2256000000         1.7315731015
      131.2002000000         2.6910371555
       42.8530200000         3.6044547316
       15.5841900000         3.7025565440
s   2 1.0 
        6.2067140000         1.8383540114
        2.5764900000         0.5447576606
s   1 1.0 
        0.5769634000         0.4718145074
s   1 1.0 
        0.2297283000         0.2364944571
s   1 1.0 
        0.0951644400         0.1221141848
p   4 1.0 
       34.6972300000         1.3596652360
        7.9582620000         1.4512590746
        2.3780830000         1.2709231872
        0.8143321000         0.8025721831
p   1 1.0 
        0.2888755000         0.3018759228
p   1 1.0 
        0.1005682000         0.0807264648
d   1 1.0 
        1.0970000000         3.3522135855
d   1 1.0 
        0.3180000000         0.3838994974
f   1 1.0 
        0.7610000000         3.0840084332

  5 0
s   3 1.0 
       34.0613400000         0.2556298765
        5.1235750000         0.4613598729
        1.1646630000         0.6811216893
s   1 1.0 
        0.3272304000         0.3083545241
s   1 1.0 
        0.1030724000         0.1296483171
p   1 1.0 
        0.8000000000         1.0784563492

  6 0
s   3 1.0 
       34.0613400000         0.2556298765
        5.1235750000         0.4613598729
        1.1646630000         0.6811216893
s   1 1.0 
        0.3272304000         0.3083545241
s   1 1.0 
        0.1030724000         0.1296483171
p   1 1.0 
        0.8000000000         1.0784563492

  7 0
s   3 1.0 
       34.0613400000         0.2556298765
        5.1235750000         0.4613598729
        1.1646630000         0.6811216893
s   1 1.0 
        0.3272304000         0.3083545241
s   1 1.0 
        0.1030724000         0.1296483171
p   1 1.0 
        0.8000000000         1.0784563492

  8 0
s   3 1.0 
       34.0613400000         0.2556298765
        5.1235750000         0.4613598729
        1.1646630000         0.6811216893
s   1 1.0 
        0.3272304000         0.3083545241
s   1 1.0 
        0.1030724000         0.1296483171
p   1 1.0 
        0.8000000000         1.0784563492

  9 0
s   3 1.0 
       34.0613400000         0.2556298765
        5.1235750000         0.4613598729
        1.1646630000         0.6811216893
s   1 1.0 
        0.3272304000         0.3083545241
s   1 1.0 
        0.1030724000         0.1296483171
p   1 1.0 
        0.8000000000         1.0784563492

 10 0
s   3 1.0 
       34.0613400000         0.2556298765
        5.1235750000         0.4613598729
        1.1646630000         0.6811216893
s   1 1.0 
        0.3272304000         0.3083545241
s   1 1.0 
        0.1030724000         0.1296483171
p   1 1.0 
        0.8000000000         1.0784563492

[5D]
[7F]
[9G]
[MO]
 Sym=     1a
 Ene= -1.91997524023085E+01
 Spin= Alpha
 Occup= 2.000000
  1       0.435384016761
  2       0.639607761008
  3       0.034923482298
  4      -0.028871745536
  5       0.010070880357
  6       0.000488092768
  7       0.000052536206
  8      -0.002078213896
  9      -0.001372201601
 10      -0.000198704537
 11       0.006182543268
 12       0.000112788854
 13       0.000004357749
 14      -0.000481096246
 15       0.000299697038
 16      -0.000100051555
 17      -0.000023417698
 18       0.000074415571
 19      -0.000007039955
 20      -0.001423002830
 21       0.000528632173
 22       0.000093178696
 23      -0.000185481452
 24      -0.000001375781
 25       0.000156783227
 26      -0.000091966255
 27      -0.000012211384
 28       0.000008709218
 29       0.000007703279
 30      -0.000000645413
 31       0.000001279640
 32       0.000043338007
 33      -0.000259928786
 34       0.000762996616
 35       0.004371859503
 36      -0.001399646515
 37      -0.000140356970
 38      -0.000023205564
 39       0.000639442000
 40      -0.001822603794
 41      -0.000292092088
 42       0.008381414923
 43       0.001090650737
 44       0.000211965850
 45      -0.004968493930
 46       0.000343523832
 47      -0.000142793939
 48      -0.000020957399
 49      -0.000033514227
 50      -0.000001881225
 51       0.004446145796
 52      -0.001527303279
 53      -0.000343445007
 54       0.001058212241
 55      -0.000032539477
 56      -0.000013326739
 57      -0.000078771504
 58       0.000025852176
 59      -0.000228759907
 60       0.000039317453
 61      -0.000065689044
 62       0.000000477271
 63       0.000017545463
 64      -0.000084358529
 65       0.000351240384
 66       0.001169355409
 67      -0.001916753719
 68      -0.000012947351
 69      -0.000124393218
 70       0.000151829613
 71      -0.000435300923
 72      -0.000915682458
 73      -0.000042735067
 74      -0.000074557564
 75       0.000718696407
 76       0.000492566504
 77       0.000039043650
 78      -0.000042313637
 79      -0.000043175611
 80      -0.000083455507
 81       0.000020293078
 82      -0.000252825274
 83       0.000164421634
 84      -0.001046634666
 85       0.000734154381
 86       0.000007459541
 87      -0.000082267858
 88       0.000016619231
 89      -0.000067490276
 90      -0.000090763800
 91       0.000008042873
 92       0.000012575482
 93       0.000062409415
 94       0.000017706808
 95      -0.000085159017
 96       0.000352542554
 97       0.001185261634
 98      -0.001815946252
 99      -0.000049417819
100       0.000112139195
101       0.000154785773
102       0.000360315155
103       0.000939976680
104       0.000174075429
105      -0.000134228835
106      -0.000722083317
107       0.000429253519
108       0.000050367848
109      -0.000030602714
110       0.000048905005
111      -0.000082225808
112       0.000000723638
113      -0.000074134039
114       0.000300080316
115       0.000931660714
116       0.000775925776
117      -0.000422118091
118      -0.000068099139
119       0.000016972450
120       0.000090586836
121      -0.000059871534
122      -0.000011131436
123      -0.000050288808
124      -0.000070153787
125       0.000128203799
126       0.001064851993
127      -0.000162132959
128      -0.000053244760
129      -0.000185727821
130      -0.000080316189
131      -0.000000549494
132      -0.000496892993
133       0.000362575746
134       0.000017741083
135      -0.000009041061
136      -0.000189999960
137      -0.000060405622
138      -0.000885245024
139       0.000413674725
140      -0.000049544606
141       0.000047652037
142      -0.000201854972
143       0.000130087123
144       0.001080074162
145      -0.000164746305
146       0.000072466730
147       0.000194732297
148      -0.000041537794
149      -0.000055785781
150      -0.000873855291
151       0.000403189383
152       0.000124202155
153      -0.000030286382
154      -0.000172995716
155      -0.000004711129
156      -0.000546924670
157       0.000354080998
158       0.000053591474
159       0.000019076837
160      -0.000187171131
 Sym=     1a
 Ene= -1.03210622529589E+01
 Spin= Alpha
 Occup= 2.000000
  1       0.000084886332
  2       0.000355088976
  3      -0.003598050037
  4       0.014845714306
  5      -0.000144246643
  6      -0.000143712043
  7      -0.000022982759
  8       0.000658219861
  9       0.001835713184
 10       0.000295139681
 11      -0.008398077677
 12       0.000034467670
 13       0.000006142781
 14      -0.000164894660
 15      -0.000027953233
 16      -0.000021405256
 17       0.000012905643
 18      -0.000145403739
 19       0.000028510832
 20       0.002934006969
 21      -0.001005848754
 22      -0.000228660975
 23       0.000705439114
 24      -0.000074875966
 25      -0.000515130314
 26       0.000252830185
 27       0.000059885937
 28      -0.000149714435
 29       0.000002854336
 30      -0.000033433310
 31      -0.000001302298
 32      -0.467186137386
 33      -0.608423043170
 34      -0.038277449582
 35       0.023670594596
 36      -0.017959914281
 37       0.000227759686
 38       0.000024806541
 39      -0.000891345596
 40       0.003147673630
 41       0.000521211180
 42      -0.014541426522
 43      -0.001345381487
 44      -0.000202794189
 45       0.006147403104
 46      -0.001719113421
 47       0.000840614793
 48       0.000052088593
 49       0.000708973530
 50      -0.000161556062
 51      -0.006439326934
 52       0.001617659829
 53       0.000696781151
 54      -0.004276737890
 55       0.000642989111
 56      -0.001524547196
 57       0.000915333819
 58       0.000128062464
 59      -0.000036934709
 60      -0.000065955722
 61       0.000018266674
 62      -0.000006141378
 63      -0.000626379636
 64      -0.000922377902
 65       0.000918190134
 66      -0.008497041581
 67       0.007737984826
 68      -0.000008795456
 69       0.000071761592
 70       0.000071028204
 71       0.001066332251
 72       0.003571620608
 73      -0.003199463232
 74      -0.000120346302
 75      -0.002541172657
 76       0.000960664897
 77       0.000014235885
 78      -0.000011628716
 79      -0.000106307669
 80      -0.000032362505
 81       0.000032743784
 82      -0.000577058713
 83       0.000211556024
 84       0.000915766395
 85      -0.000236542763
 86      -0.000164594685
 87      -0.000500211553
 88       0.000063579994
 89      -0.000004038372
 90      -0.000399777343
 91       0.000160333598
 92      -0.000260385301
 93      -0.000380035705
 94      -0.000620651499
 95      -0.000915198112
 96       0.000921637874
 97      -0.008498735471
 98       0.007768399712
 99      -0.000021739348
100      -0.000076003405
101       0.000063047672
102       0.000425332145
103      -0.003331693104
104      -0.003580594245
105      -0.000270606635
106       0.002454203983
107       0.001134980662
108       0.000026918321
109      -0.000015262752
110       0.000108746571
111      -0.000025162414
112      -0.000015076531
113      -0.000708007231
114       0.000170117473
115      -0.000800065126
116      -0.000279806980
117       0.000222015035
118      -0.000433638566
119       0.000130055969
120       0.000170054174
121      -0.000522729282
122      -0.000098038155
123       0.000010486616
124       0.000365739957
125      -0.000006662878
126       0.000238087229
127      -0.000420400858
128      -0.000050822026
129      -0.000239397003
130       0.000271871459
131      -0.000023739880
132       0.000465302024
133      -0.000125267164
134       0.000019767197
135      -0.000219172852
136       0.000120277964
137       0.000035511780
138       0.000510962940
139       0.000382364977
140      -0.000094267075
141      -0.000210776027
142       0.000110606869
143      -0.000005891589
144       0.000235171682
145      -0.000432016249
146      -0.000065312711
147       0.000218532987
148       0.000285765047
149       0.000029996712
150       0.000501789321
151       0.000339554729
152       0.000039374841
153       0.000199797288
154       0.000152685428
155      -0.000018088496
156       0.000478918507
157      -0.000078389001
158      -0.000069773515
159       0.000211582447
160       0.000119677012
 Sym=     1a
 Ene= -1.02247879112239E+01
 Spin= Alpha
 Occup= 2.000000
  1      -0.000004629805
  2       0.000053919146
  3      -0.000615190844
  4       0.002598459228
  5      -0.000712703159
  6      -0.000036902503
  7      -0.000140484634
  8       0.000069674958
  9       0.000293173891
 10       0.000980580992
 11      -0.000752671728
 12      -0.000030526217
 13      -0.000482918067
 14      -0.000399708388
 15      -0.000010436040
 16       0.000002973809
 17       0.000046881235
 18      -0.000017046703
 19      -0.000004263636
 20       0.000023810271
 21      -0.000033585905
 22      -0.000346198644
 23       0.000011765255
 24       0.000065302213
 25       0.000047513429
 26      -0.000014874953
 27      -0.000015160166
 28       0.000047200908
 29       0.000005690674
 30       0.000001378289
 31      -0.000026441328
 32       0.000693050620
 33       0.000811882009
 34      -0.000021445123
 35      -0.002568068964
 36       0.009349486554
 37      -0.000068584951
 38      -0.000534527917
 39       0.000106086782
 40       0.000681481777
 41       0.004772204544
 42      -0.000989778641
 43       0.000554779418
 44       0.006352712144
 45       0.000000185251
 46       0.000058454760
 47      -0.000057727587
 48      -0.000058580201
 49      -0.000131106260
 50       0.000043189740
 51      -0.002079579486
 52       0.000134506744
 53      -0.003721693851
 54      -0.001073889208
 55       0.000984153396
 56       0.000310259888
 57       0.000070141855
 58       0.000034879247
 59       0.000553249720
 60      -0.000280039596
 61       0.000345536464
 62       0.000537097376
 63      -0.467073712268
 64      -0.608671914962
 65      -0.034384146754
 66       0.013957422115
 67      -0.032536400568
 68       0.000022440162
 69       0.000359992725
 70      -0.000017214480
 71       0.000275945438
 72       0.000576096106
 73      -0.000476810035
 74       0.000937514069
 75       0.003492000075
 76      -0.000591370057
 77      -0.000058788709
 78       0.000040646455
 79      -0.000019298299
 80       0.000055794084
 81      -0.000025618354
 82       0.000063883810
 83      -0.000062217730
 84       0.000351936079
 85      -0.000430940341
 86       0.000048527361
 87      -0.000101491228
 88       0.000164125335
 89      -0.000358786383
 90       0.001613701944
 91      -0.000455707397
 92       0.000179404902
 93      -0.000068304708
 94       0.002549149535
 95       0.003313908651
 96      -0.000304933722
 97       0.003540631635
 98       0.004097685593
 99      -0.000001732324
100      -0.000116068443
101       0.000020914608
102       0.000222811977
103       0.003348605584
104       0.000650948968
105       0.000748202195
106       0.002273533121
107      -0.000302710720
108       0.000021854812
109      -0.000024106288
110       0.000026295684
111      -0.000054769193
112       0.000022772982
113      -0.000822785952
114       0.000285300311
115       0.000876197675
116      -0.000661761481
117      -0.000200137361
118      -0.000034742009
119      -0.000018290264
120      -0.000069976585
121      -0.000081212023
122      -0.000015245818
123      -0.000000014700
124       0.000103363017
125       0.000454134338
126       0.001842078092
127       0.003767857654
128      -0.000086459086
129      -0.001391134257
130      -0.001284403512
131       0.000433616916
132       0.002591495071
133       0.004965600372
134      -0.001655455919
135       0.000066155087
136       0.001101885320
137       0.000430968075
138       0.002746322319
139       0.005330431994
140       0.001400590328
141      -0.000428123956
142       0.001340456297
143       0.000069668009
144       0.000843310750
145       0.001020910947
146       0.000025321201
147       0.000175303623
148      -0.000011261081
149      -0.000032358161
150      -0.000402139502
151      -0.000797629271
152       0.000023985096
153      -0.000026815901
154      -0.000084831268
155      -0.000030149534
156      -0.000265862320
157      -0.000170708242
158       0.000068021574
159      -0.000004043782
160      -0.000081996951
 Sym=     1a
 Ene= -1.02238766090606E+01
 Spin= Alpha
 Occup= 2.000000
  1      -0.000004714634
  2       0.000054981141
  3      -0.000625855348
  4       0.002629978608
  5      -0.000743580358
  6       0.000000624812
  7       0.000134970358
  8       0.000088377121
  9       0.000070126266
 10      -0.000921623085
 11      -0.000873992852
 12       0.000163997019
 13       0.000514792148
 14      -0.000319575892
 15      -0.000017457035
 16      -0.000000551108
 17      -0.000041103074
 18      -0.000019052704
 19       0.000015198626
 20       0.000081024953
 21       0.000002801388
 22       0.000331708191
 23       0.000024160437
 24      -0.000085015135
 25       0.000052064230
 26      -0.000012338030
 27      -0.000002263976
 28       0.000039579690
 29      -0.000013753306
 30       0.000021532376
 31       0.000027161178
 32       0.000694977892
 33       0.000812818537
 34       0.000003011826
 35      -0.002724690563
 36       0.009492673043
 37       0.000010477986
 38       0.000520638866
 39       0.000161051664
 40      -0.000140110215
 41      -0.004622476182
 42      -0.001460066713
 43      -0.000375318991
 44      -0.006297630116
 45      -0.000658339156
 46       0.000070291588
 47      -0.000050316196
 48       0.000068700752
 49      -0.000130691129
 50       0.000012664351
 51      -0.001335097730
 52       0.000771226063
 53       0.004031725955
 54      -0.000931467255
 55      -0.000717670696
 56       0.000268712006
 57       0.000065327446
 58      -0.000224061009
 59       0.000689942232
 60       0.000093022701
 61       0.000006248318
 62      -0.000531971429
 63      -0.002548621409
 64      -0.003329281899
 65      -0.000692256043
 66       0.003761078512
 67       0.003764631944
 68      -0.000004246888
 69       0.000119605339
 70       0.000026380523
 71      -0.000475855660
 72      -0.003405022740
 73       0.000293980515
 74      -0.000562634600
 75      -0.002195202134
 76      -0.000743308459
 77       0.000021460610
 78      -0.000015511067
 79      -0.000015780569
 80      -0.000057982740
 81       0.000029531669
 82      -0.000991692831
 83       0.000124460431
 84      -0.000724955328
 85      -0.000699842438
 86       0.000162439416
 87      -0.000019298895
 88      -0.000007784024
 89       0.000071024887
 90      -0.000041494085
 91      -0.000013995043
 92      -0.000035289429
 93      -0.000117841975
 94      -0.467073435306
 95      -0.608669471305
 96      -0.034414552202
 97       0.014065883331
 98      -0.032562281456
 99      -0.000035083370
100      -0.000349502574
101      -0.000106232207
102      -0.000010349930
103      -0.000477760931
104      -0.000485421877
105      -0.000519297246
106      -0.003437209833
107      -0.001156984166
108      -0.000057584544
109       0.000036455455
110       0.000012596181
111       0.000058088185
112      -0.000029777575
113      -0.000016141949
114      -0.000148400011
115      -0.000246477789
116      -0.000462854278
117       0.000193128331
118       0.000261257031
119       0.000756876364
120      -0.000149306121
121       0.001285928690
122      -0.000525969717
123       0.000642658789
124      -0.000047375799
125       0.000073740734
126       0.000850271168
127       0.001064005905
128      -0.000021222595
129      -0.000185811811
130      -0.000045657867
131      -0.000021653398
132      -0.000199048527
133      -0.000122601105
134      -0.000054202544
135       0.000010397424
136      -0.000086739224
137      -0.000028991430
138      -0.000401730506
139      -0.000740224398
140       0.000021104593
141       0.000034199194
142      -0.000071837921
143       0.000455093311
144       0.001833244698
145       0.003781798040
146       0.000562324992
147       0.001479775210
148      -0.001050300390
149       0.000432948477
150       0.002747915680
151       0.005325025933
152      -0.001832659818
153       0.000337481981
154       0.000702024466
155       0.000434675518
156       0.002629693239
157       0.004972206528
158       0.001081877040
159      -0.000154087304
160       0.001657792868
 Sym=     1a
 Ene= -1.08345286928374E+00
 Spin= Alpha
 Occup= 2.000000
  1       0.088645272396
  2       0.208872401534
  3      -0.300188260990
  4      -0.393850119455
  5      -0.120360228756
  6      -0.026348500623
  7      -0.003420519544
  8       0.114091704282
  9      -0.020778853656
 10      -0.002344315035
 11       0.086758839906
 12      -0.005162520158
 13       0.000421397176
 14       0.005267488356
 15      -0.006314716352
 16       0.002446789739
 17       0.000405979990
 18      -0.000821214501
 19       0.000036719624
 20      -0.014429641130
 21       0.003885113861
 22       0.001281224057
 23      -0.003453399718
 24       0.000464412091
 25       0.002564143553
 26      -0.001476696064
 27      -0.000254223975
 28       0.000481897535
 29       0.000071876308
 30       0.000121177134
 31      -0.000023603852
 32       0.057535067935
 33       0.121186890397
 34      -0.186621535824
 35      -0.155770611518
 36      -0.023342466937
 37       0.028554653046
 38       0.004816052893
 39      -0.131943135632
 40       0.008059172846
 41       0.001653218777
 42      -0.036669687824
 43       0.001886431429
 44       0.001942611471
 45       0.001391872621
 46      -0.018429505356
 47       0.007176846124
 48       0.001106320425
 49       0.000384659369
 50      -0.000422179034
 51      -0.004647998501
 52       0.004211112446
 53      -0.000323449748
 54       0.007471381132
 55      -0.001627220307
 56      -0.007555521186
 57       0.003165921680
 58       0.001063771762
 59      -0.003511353753
 60       0.000290215627
 61      -0.000861226004
 62      -0.000020467789
 63       0.008623998860
 64       0.017883273610
 65      -0.027411490469
 66      -0.013541170335
 67       0.007565828310
 68       0.003641089207
 69       0.011747170586
 70      -0.011655205318
 71       0.000786784167
 72      -0.000208727959
 73      -0.003702507094
 74      -0.001251123262
 75      -0.001394065494
 76       0.000521910182
 77      -0.000594577147
 78       0.000389718109
 79       0.001067075245
 80       0.000238269727
 81      -0.000326752349
 82      -0.001501585875
 83       0.000261319986
 84      -0.000201146220
 85      -0.001075062444
 86       0.000303049821
 87      -0.000587719122
 88       0.000345318796
 89       0.000586254022
 90       0.000091262224
 91      -0.000325676521
 92       0.000069830776
 93      -0.000015104724
 94       0.008659928163
 95       0.017955075027
 96      -0.027515880196
 97      -0.013557963365
 98       0.012308302909
 99       0.001658180127
100      -0.010895931893
101      -0.013007519047
102       0.000804284718
103       0.000704056412
104      -0.003409981931
105      -0.000233267805
106       0.001872535371
107       0.001935488138
108      -0.000816745515
109       0.000276663443
110      -0.001022182052
111       0.000219142877
112       0.000155252866
113      -0.001250937885
114       0.000285875274
115       0.000597775677
116      -0.001265855007
117       0.000215470286
118      -0.000690584322
119       0.000407987613
120      -0.000539873951
121       0.000009798852
122       0.000095580190
123       0.000061856895
124      -0.000051079621
125      -0.005161790961
126      -0.005084374717
127      -0.001631200090
128       0.000207286899
129       0.001206801899
130       0.000302801803
131      -0.002918094609
132      -0.003183382843
133      -0.000921237860
134       0.000480843513
135       0.000358368599
136      -0.000612228535
137      -0.003157677405
138      -0.003670986559
139      -0.001263677310
140      -0.000219443566
141       0.000603684769
142      -0.000749702464
143      -0.005245227418
144      -0.005298187300
145      -0.002397927007
146      -0.000271879830
147      -0.001248791295
148       0.000107303703
149      -0.003146339149
150      -0.003493622451
151      -0.001800694908
152       0.000476280027
153      -0.000593233905
154      -0.000643887878
155      -0.002898169141
156      -0.003220872613
157      -0.001008517155
158      -0.000230314616
159      -0.000294394433
160      -0.000729157367
 Sym=     1a
 Ene= -7.96960496548655E-01
 Spin= Alpha
 Occup= 2.000000
  1      -0.030384602934
  2      -0.072301832205
  3       0.109482315188
  4       0.140475024655
  5       0.069037899009
  6       0.000368663059
  7      -0.000474522943
  8       0.003699467837
  9      -0.000050118033
 10      -0.000626051470
 11       0.005150805493
 12       0.001441376464
 13      -0.001872140598
 14       0.006988749276
 15       0.000509755548
 16      -0.000181524529
 17      -0.000069498368
 18       0.000397823312
 19      -0.000064692386
 20       0.000506150159
 21       0.000756783208
 22      -0.000086408823
 23       0.001123015775
 24      -0.000305797349
 25      -0.000097131442
 26       0.000077823353
 27       0.000013207251
 28      -0.000196866070
 29       0.000012574869
 30      -0.000071751250
 31       0.000016433443
 32       0.043572996061
 33       0.093152725522
 34      -0.147672239935
 35      -0.147794526012
 36      -0.034436868607
 37      -0.027885515837
 38      -0.004608576874
 39       0.129076314778
 40      -0.017371157579
 41      -0.005119324395
 42       0.077277153616
 43      -0.004772381844
 44       0.003715706987
 45       0.014574650707
 46       0.006029920351
 47      -0.000732272466
 48      -0.000889073587
 49       0.006717654111
 50      -0.001146602973
 51       0.005722129208
 52      -0.000953155661
 53       0.000598535275
 54       0.006996031921
 55      -0.001357874480
 56      -0.000141378892
 57      -0.000859487770
 58       0.000309326408
 59      -0.002577169247
 60       0.000500389827
 61      -0.000727937174
 62      -0.000052477467
 63       0.059242034884
 64       0.126075267475
 65      -0.188967111297
 66      -0.219694126995
 67      -0.016942747718
 68       0.004268157279
 69       0.037693069761
 70      -0.002071922372
 71       0.003858423399
 72       0.033027616702
 73      -0.001250561628
 74      -0.001155672570
 75       0.001112804135
 76       0.001858170321
 77       0.001518028123
 78       0.000330050126
 79       0.001525863681
 80       0.002568941793
 81      -0.000803913373
 82       0.004839357148
 83      -0.000484556661
 84       0.002493186190
 85       0.006039519340
 86      -0.001898754154
 87       0.000706794743
 88       0.000064922260
 89      -0.001663290262
 90       0.003875695776
 91      -0.001073958195
 92       0.000946959137
 93       0.001114596182
 94       0.058850122776
 95       0.125215040939
 96      -0.186756466266
 97      -0.223238291157
 98      -0.005280981908
 99      -0.002852162923
100      -0.037200806514
101      -0.006998269114
102      -0.002844914683
103      -0.035902557916
104      -0.006638477253
105       0.001763250939
106      -0.000847768070
107       0.002528554923
108       0.001026931701
109      -0.000075741807
110      -0.002036608743
111       0.002676728625
112      -0.000090331861
113       0.005023461876
114      -0.001273559288
115      -0.005560990105
116       0.005591562481
117       0.000002412400
118       0.001536943195
119       0.001287811163
120       0.000293215727