[Molden Format]
[Title]
 Molden file created by orca_2mkl for BaseName=temp

[Atoms] AU
O    1   8          0.3337483120        17.6991012710         7.2210819742 
C    2   6          0.8201241346        17.7775060083         4.9965303844 
C    3   6          1.3491907603        20.2367294586         3.6632756846 
C    4   6          0.9275229400        15.4222666283         3.4005206040 
H    5   1          1.4572774260        21.7720015513         5.0271401683 
H    6   1          3.1040849346        20.1229452686         2.5777092789 
H    7   1         -0.1659576388        20.6286397615         2.3103980686 
H    8   1          0.3201630708        13.7949988879         4.5012104880 
H    9   1          2.8620507011        15.1201768982         2.7362591912 
H   10   1         -0.2550128726        15.6262417774         1.7181919133 
[GTO]
  1 0
s   6 1.0 
    27032.3800000000         0.8598581393
     4052.3870000000         1.6055304059
      922.3272000000         2.7458780898
      261.2407000000         4.2987677378
       85.3546400000         5.8797670930
       31.0350400000         6.3163984679
s   2 1.0 
       12.2608600000         2.9812145398
        4.9987080000         0.9419560379
s   1 1.0 
        1.1703110000         0.8019292557
s   1 1.0 
        0.4647474000         0.4011647998
s   1 1.0 
        0.1850454000         0.2010799703
p   4 1.0 
       63.2749500000         3.0572013698
       14.6270500000         3.3844845670
        4.4501220000         2.9474258212
        1.5275800000         1.7118271901
p   1 1.0 
        0.5293512000         0.6436058239
p   1 1.0 
        0.1747842000         0.1610897108
d   1 1.0 
        2.3140000000        12.3767310624
d   1 1.0 
        0.6450000000         1.3234257612
f   1 1.0 
        1.4280000000        12.7097950062

  2 0
s   6 1.0 
    13575.3500000000         0.5435905009
     2035.2330000000         1.0145543008
      463.2256000000         1.7315731015
      131.2002000000         2.6910371555
       42.8530200000         3.6044547316
       15.5841900000         3.7025565440
s   2 1.0 
        6.2067140000         1.8383540114
        2.5764900000         0.5447576606
s   1 1.0 
        0.5769634000         0.4718145074
s   1 1.0 
        0.2297283000         0.2364944571
s   1 1.0 
        0.0951644400         0.1221141848
p   4 1.0 
       34.6972300000         1.3596652360
        7.9582620000         1.4512590746
        2.3780830000         1.2709231872
        0.8143321000         0.8025721831
p   1 1.0 
        0.2888755000         0.3018759228
p   1 1.0 
        0.1005682000         0.0807264648
d   1 1.0 
        1.0970000000         3.3522135855
d   1 1.0 
        0.3180000000         0.3838994974
f   1 1.0 
        0.7610000000         3.0840084332

  3 0
s   6 1.0 
    13575.3500000000         0.5435905009
     2035.2330000000         1.0145543008
      463.2256000000         1.7315731015
      131.2002000000         2.6910371555
       42.8530200000         3.6044547316
       15.5841900000         3.7025565440
s   2 1.0 
        6.2067140000         1.8383540114
        2.5764900000         0.5447576606
s   1 1.0 
        0.5769634000         0.4718145074
s   1 1.0 
        0.2297283000         0.2364944571
s   1 1.0 
        0.0951644400         0.1221141848
p   4 1.0 
       34.6972300000         1.3596652360
        7.9582620000         1.4512590746
        2.3780830000         1.2709231872
        0.8143321000         0.8025721831
p   1 1.0 
        0.2888755000         0.3018759228
p   1 1.0 
        0.1005682000         0.0807264648
d   1 1.0 
        1.0970000000         3.3522135855
d   1 1.0 
        0.3180000000         0.3838994974
f   1 1.0 
        0.7610000000         3.0840084332

  4 0
s   6 1.0 
    13575.3500000000         0.5435905009
     2035.2330000000         1.0145543008
      463.2256000000         1.7315731015
      131.2002000000         2.6910371555
       42.8530200000         3.6044547316
       15.5841900000         3.7025565440
s   2 1.0 
        6.2067140000         1.8383540114
        2.5764900000         0.5447576606
s   1 1.0 
        0.5769634000         0.4718145074
s   1 1.0 
        0.2297283000         0.2364944571
s   1 1.0 
        0.0951644400         0.1221141848
p   4 1.0 
       34.6972300000         1.3596652360
        7.9582620000         1.4512590746
        2.3780830000         1.2709231872
        0.8143321000         0.8025721831
p   1 1.0 
        0.2888755000         0.3018759228
p   1 1.0 
        0.1005682000         0.0807264648
d   1 1.0 
        1.0970000000         3.3522135855
d   1 1.0 
        0.3180000000         0.3838994974
f   1 1.0 
        0.7610000000         3.0840084332

  5 0
s   3 1.0 
       34.0613400000         0.2556298765
        5.1235750000         0.4613598729
        1.1646630000         0.6811216893
s   1 1.0 
        0.3272304000         0.3083545241
s   1 1.0 
        0.1030724000         0.1296483171
p   1 1.0 
        0.8000000000         1.0784563492

  6 0
s   3 1.0 
       34.0613400000         0.2556298765
        5.1235750000         0.4613598729
        1.1646630000         0.6811216893
s   1 1.0 
        0.3272304000         0.3083545241
s   1 1.0 
        0.1030724000         0.1296483171
p   1 1.0 
        0.8000000000         1.0784563492

  7 0
s   3 1.0 
       34.0613400000         0.2556298765
        5.1235750000         0.4613598729
        1.1646630000         0.6811216893
s   1 1.0 
        0.3272304000         0.3083545241
s   1 1.0 
        0.1030724000         0.1296483171
p   1 1.0 
        0.8000000000         1.0784563492

  8 0
s   3 1.0 
       34.0613400000         0.2556298765
        5.1235750000         0.4613598729
        1.1646630000         0.6811216893
s   1 1.0 
        0.3272304000         0.3083545241
s   1 1.0 
        0.1030724000         0.1296483171
p   1 1.0 
        0.8000000000         1.0784563492

  9 0
s   3 1.0 
       34.0613400000         0.2556298765
        5.1235750000         0.4613598729
        1.1646630000         0.6811216893
s   1 1.0 
        0.3272304000         0.3083545241
s   1 1.0 
        0.1030724000         0.1296483171
p   1 1.0 
        0.8000000000         1.0784563492

 10 0
s   3 1.0 
       34.0613400000         0.2556298765
        5.1235750000         0.4613598729
        1.1646630000         0.6811216893
s   1 1.0 
        0.3272304000         0.3083545241
s   1 1.0 
        0.1030724000         0.1296483171
p   1 1.0 
        0.8000000000         1.0784563492

[5D]
[7F]
[9G]
[MO]
 Sym=     1a
 Ene= -1.91910502305366E+01
 Spin= Alpha
 Occup= 2.000000
  1       0.435384245210
  2       0.639609007756
  3       0.034922611595
  4      -0.028882546420
  5       0.010050913789
  6       0.000486731912
  7       0.000053125140
  8      -0.002089963376
  9      -0.001373493819
 10      -0.000199296541
 11       0.006198950149
 12       0.000110927320
 13       0.000004179571
 14      -0.000477534425
 15       0.000299612803
 16      -0.000100508441
 17      -0.000023380958
 18       0.000074482421
 19      -0.000007060477
 20      -0.001426539257
 21       0.000529536475
 22       0.000093412320
 23      -0.000185858088
 24      -0.000001388061
 25       0.000157230220
 26      -0.000092357027
 27      -0.000012239453
 28       0.000008695793
 29       0.000007736740
 30      -0.000000649705
 31       0.000001282121
 32       0.000043423339
 33      -0.000260457465
 34       0.000763303611
 35       0.004388726734
 36      -0.001397479931
 37      -0.000140740033
 38      -0.000023244215
 39       0.000640697257
 40      -0.001826863902
 41      -0.000292836889
 42       0.008399215542
 43       0.001090342720
 44       0.000212213692
 45      -0.004962998611
 46       0.000344693679
 47      -0.000143343789
 48      -0.000021027827
 49      -0.000033438754
 50      -0.000001861032
 51       0.004452953741
 52      -0.001530334632
 53      -0.000343912608
 54       0.001059554148
 55      -0.000032571630
 56      -0.000013079154
 57      -0.000079256199
 58       0.000025875820
 59      -0.000229029208
 60       0.000039419190
 61      -0.000065782116
 62       0.000000481414
 63       0.000017556966
 64      -0.000084411099
 65       0.000351492872
 66       0.001170840855
 67      -0.001916164075
 68      -0.000012938459
 69      -0.000124478482
 70       0.000151985408
 71      -0.000436161548
 72      -0.000917373884
 73      -0.000042158343
 74      -0.000074747162
 75       0.000717817176
 76       0.000491379167
 77       0.000039122379
 78      -0.000042388356
 79      -0.000043282161
 80      -0.000083525541
 81       0.000020298951
 82      -0.000253412286
 83       0.000164858450
 84      -0.001047611385
 85       0.000734205477
 86       0.000007765787
 87      -0.000082423736
 88       0.000016667492
 89      -0.000067497085
 90      -0.000090821569
 91       0.000008010880
 92       0.000012615203
 93       0.000062485329
 94       0.000017720540
 95      -0.000085220491
 96       0.000352863000
 97       0.001186571262
 98      -0.001813995903
 99      -0.000049441539
100       0.000112198313
101       0.000154970983
102       0.000360187981
103       0.000941736940
104       0.000174597303
105      -0.000134116375
106      -0.000720888617
107       0.000428436370
108       0.000050471622
109      -0.000030658388
110       0.000049016785
111      -0.000082272414
112       0.000000740311
113      -0.000074496125
114       0.000300626947
115       0.000932580804
116       0.000776017054
117      -0.000422595546
118      -0.000068232695
119       0.000017047938
120       0.000090620812
121      -0.000059914144
122      -0.000011136403
123      -0.000050316544
124      -0.000070265793
125       0.000128232523
126       0.001065836856
127      -0.000161656192
128      -0.000053347386
129      -0.000185941732
130      -0.000080392141
131      -0.000000531553
132      -0.000496342970
133       0.000362144954
134       0.000017586598
135      -0.000009065298
136      -0.000190049439
137      -0.000060501162
138      -0.000885611973
139       0.000413508737
140      -0.000049518477
141       0.000047674714
142      -0.000201947776
143       0.000130160422
144       0.001081145242
145      -0.000164440716
146       0.000072506916
147       0.000194996863
148      -0.000041585685
149      -0.000055813147
150      -0.000873767498
151       0.000402808356
152       0.000124127355
153      -0.000030247002
154      -0.000173114462
155      -0.000004759526
156      -0.000547216337
157       0.000353712842
158       0.000053655668
159       0.000019082498
160      -0.000187288637
 Sym=     1a
 Ene= -1.03126564495516E+01
 Spin= Alpha
 Occup= 2.000000
  1      -0.000084911606
  2      -0.000354693948
  3       0.003591744281
  4      -0.014832655976
  5       0.000154282602
  6       0.000143350961
  7       0.000022863123
  8      -0.000656361716
  9      -0.001832870504
 10      -0.000294155956
 11       0.008384657984
 12      -0.000034091752
 13      -0.000005723220
 14       0.000162381575
 15       0.000027411144
 16       0.000021629021
 17      -0.000012837369
 18       0.000145628054
 19      -0.000028559926
 20      -0.002925989952
 21       0.001002955934
 22       0.000227923251
 23      -0.000706103789
 24       0.000075210502
 25       0.000512381013
 26      -0.000251550656
 27      -0.000059583734
 28       0.000149551114
 29      -0.000002952181
 30       0.000033433267
 31       0.000001288049
 32       0.467185811519
 33       0.608423004167
 34       0.038287069965
 35      -0.023732031836
 36       0.017963551013
 37      -0.000217829088
 38      -0.000028280739
 39       0.000868518856
 40      -0.003154349811
 41      -0.000509113181
 42       0.014559007141
 43       0.001347823976
 44       0.000201531933
 45      -0.006151664390
 46       0.001714949860
 47      -0.000839066681
 48      -0.000051394255
 49      -0.000709957927
 50       0.000161455561
 51       0.006437841055
 52      -0.001614477406
 53      -0.000703054750
 54       0.004286770554
 55      -0.000643625430
 56       0.001522334787
 57      -0.000914647810
 58      -0.000127626754
 59       0.000035030843
 60       0.000066060786
 61      -0.000018898549
 62       0.000006624789
 63       0.000634455508
 64       0.000932950167
 65      -0.000920885516
 66       0.008513183326
 67      -0.007740051201
 68       0.000008679772
 69      -0.000071366291
 70      -0.000071202954
 71      -0.001066563386
 72      -0.003581289487
 73       0.003204446653
 74       0.000119642805
 75       0.002541832101
 76      -0.000959686890
 77      -0.000014325871
 78       0.000011550936
 79       0.000105966127
 80       0.000032195838
 81      -0.000032609164
 82       0.000576791252
 83      -0.000212686896
 84      -0.000917198241
 85       0.000233797576
 86       0.000164891865
 87       0.000500505633
 88      -0.000063677155
 89       0.000004065348
 90       0.000399730348
 91      -0.000160335109
 92       0.000260410607
 93       0.000380080473
 94       0.000631731133
 95       0.000929581059
 96      -0.000926165303
 97       0.008533156123
 98      -0.007775432873
 99       0.000021584973
100       0.000075572798
101      -0.000063231810
102      -0.000424189276
103       0.003351489478
104       0.003592882444
105       0.000270429416
106      -0.002454814254
107      -0.001134983386
108      -0.000026872144
109       0.000015198309
110      -0.000108086018
111       0.000024721665
112       0.000014983111
113       0.000707238465
114      -0.000170227558
115       0.000805767997
116       0.000275886091
117      -0.000221651442
118       0.000433852950
119      -0.000130296207
120      -0.000170041518
121       0.000522632601
122       0.000098207781
123      -0.000010594086
124      -0.000365808359
125       0.000006586793
126      -0.000238766940
127       0.000420439498
128       0.000050938744
129       0.000239478705
130      -0.000271968825
131       0.000023658413
132      -0.000466462886
133       0.000125890423
134      -0.000019450819
135       0.000219736042
136      -0.000120517447
137      -0.000035401033
138      -0.000510122641
139      -0.000382570821
140       0.000094423040
141       0.000210979924
142      -0.000110522351
143       0.000006031341
144      -0.000235045548
145       0.000432977257
146       0.000065423796
147      -0.000218685860
148      -0.000286077539
149      -0.000030089191
150      -0.000503604298
151      -0.000338882923
152      -0.000039126390
153      -0.000200669839
154      -0.000153325553
155       0.000018162667
156      -0.000479081937
157       0.000079086487
158       0.000069877096
159      -0.000212081745
160      -0.000119959297
 Sym=     1a
 Ene= -1.02176039579610E+01
 Spin= Alpha
 Occup= 2.000000
  1       0.000004599154
  2      -0.000053549729
  3       0.000611002112
  4      -0.002581582595
  5       0.000709872627
  6       0.000036913312
  7       0.000141169732
  8      -0.000069047457
  9      -0.000292710956
 10      -0.000985310327
 11       0.000746749947
 12       0.000031545105
 13       0.000486610270
 14       0.000397119482
 15       0.000010334167
 16      -0.000002982311
 17      -0.000047063127
 18       0.000016977380
 19       0.000004290622
 20      -0.000023277178
 21       0.000033581761
 22       0.000347717014
 23      -0.000011869517
 24      -0.000065502211
 25      -0.000047145196
 26       0.000014812915
 27       0.000015176785
 28      -0.000046895583
 29      -0.000005802066
 30      -0.000001236681
 31       0.000026561495
 32      -0.000696953565
 33      -0.000817521953
 34       0.000024666178
 35       0.002529006835
 36      -0.009294931182
 37       0.000068800011
 38       0.000537434435
 39      -0.000105253732
 40      -0.000685468197
 41      -0.004808155812
 42       0.000987130922
 43      -0.000556215450
 44      -0.006392466769
 45      -0.000003382893
 46      -0.000057937128
 47       0.000057395160
 48       0.000059300685
 49       0.000130622396
 50      -0.000043224281
 51       0.002071565986
 52      -0.000128134586
 53       0.003746091157
 54       0.001071345193
 55      -0.000989932491
 56      -0.000308790634
 57      -0.000069751744
 58      -0.000036200904
 59      -0.000549230130
 60       0.000280704923
 61      -0.000345628237
 62      -0.000540066427
 63       0.467051152125
 64       0.608642874492
 65       0.034373964811
 66      -0.013918775502
 67       0.032564915153
 68      -0.000029256102
 69      -0.000351439596
 70       0.000012485306
 71      -0.000275759164
 72      -0.000611491286
 73       0.000488047796
 74      -0.000944976820
 75      -0.003504980688
 76       0.000586004329
 77       0.000059175304
 78      -0.000040158108
 79       0.000019564899
 80      -0.000056127384
 81       0.000025507247
 82      -0.000070701858
 83       0.000061401903
 84      -0.000360447983
 85       0.000422335829
 86      -0.000046337248
 87       0.000100964211
 88      -0.000164227392
 89       0.000359153814
 90      -0.001614566420
 91       0.000455796530
 92      -0.000179761054
 93       0.000066978651
 94      -0.005258866975
 95      -0.006845043210
 96       0.000104261516
 97      -0.003454475345
 98      -0.004292600445
 99       0.000001418583
100       0.000113995476
101      -0.000021537362
102      -0.000222247206
103      -0.003348553341
104      -0.000652913233
105      -0.000752257180
106      -0.002294469464
107       0.000295985442
108      -0.000022210736
109       0.000024330247
110      -0.000026204344
111       0.000055028510
112      -0.000022932300
113       0.000822247591
114      -0.000286305237
115      -0.000876824181
116       0.000658443694
117       0.000201344097
118       0.000036267275
119       0.000022605829
120       0.000069007558
121       0.000088603984
122       0.000012198305
123       0.000003830370
124      -0.000103472764
125      -0.000453633708
126      -0.001837219009
127      -0.003761932751
128       0.000086334989
129       0.001390523941
130       0.001284187588
131      -0.000433606902
132      -0.002592831825
133      -0.004965455742
134       0.001654532026
135      -0.000065705988
136      -0.001102227176
137      -0.000430864273
138      -0.002746635462
139      -0.005339042644
140      -0.001401224413
141       0.000428590457
142      -0.001341462639
143      -0.000067034447
144      -0.000831987996
145      -0.000999158506
146      -0.000021954066
147      -0.000166594995
148       0.000005076052
149       0.000034736759
150       0.000418182665
151       0.000830370362
152      -0.000034598818
153       0.000028807320
154       0.000088897108
155       0.000032642763
156       0.000281589315
157       0.000200403906
158      -0.000061663828
159       0.000003187562
160       0.000091656012
 Sym=     1a
 Ene= -1.02171622418791E+01
 Spin= Alpha
 Occup= 2.000000
  1      -0.000004736039
  2       0.000055219433
  3      -0.000628629370
  4       0.002643236400
  5      -0.000750620826
  6       0.000000477565
  7       0.000134020080
  8       0.000088598358
  9       0.000071526964
 10      -0.000915100683
 11      -0.000877166161
 12       0.000163767601
 13       0.000513453628
 14      -0.000320515218
 15      -0.000017504749
 16      -0.000000541599
 17      -0.000040701357
 18      -0.000019231244
 19       0.000015185507
 20       0.000081000571
 21       0.000002686223
 22       0.000328871001
 23       0.000024684189
 24      -0.000084633044
 25       0.000052267094
 26      -0.000012412294
 27      -0.000002234619
 28       0.000039720983
 29      -0.000013707338
 30       0.000021490913
 31       0.000026954153
 32       0.000710138275
 33       0.000832058503
 34      -0.000003111030
 35      -0.002697773288
 36       0.009549809421
 37       0.000010057841
 38       0.000517455516
 39       0.000161898732
 40      -0.000135344816
 41      -0.004610607538
 42      -0.001479337686
 43      -0.000372042626
 44      -0.006267589435
 45      -0.000659959562
 46       0.000070524879
 47      -0.000050665581
 48       0.000068980404
 49      -0.000131854741
 50       0.000012870283
 51      -0.001346194848
 52       0.000771026560
 53       0.004013594967
 54      -0.000943847461
 55      -0.000711084960
 56       0.000270605685
 57       0.000065687794
 58      -0.000224068050
 59       0.000693314054
 60       0.000091365936
 61       0.000008228943
 62      -0.000528844156
 63      -0.005258301081
 64      -0.006860518030
 65      -0.000889893416
 66       0.003834088439
 67       0.003584389306
 68      -0.000004118670
 69       0.000121281587
 70       0.000026425151
 71      -0.000473275296
 72      -0.003396199697
 73       0.000289972987
 74      -0.000557809951
 75      -0.002176416273
 76      -0.000746598408
 77       0.000021133268
 78      -0.000015252428
 79      -0.000015893714
 80      -0.000057555301
 81       0.000029375278
 82      -0.000990542665
 83       0.000124168952
 84      -0.000721693687
 85      -0.000700923636
 86       0.000162152082
 87      -0.000019969353
 88      -0.000006769318
 89       0.000068799997
 90      -0.000032077880
 91      -0.000016659776
 92      -0.000034094938
 93      -0.000117938458
 94      -0.467050780433
 95      -0.608640536530
 96      -0.034406845477
 97       0.014054250822
 98      -0.032549381286
 99      -0.000039672002
100      -0.000338351015
101      -0.000099115281
102      -0.000004652802
103      -0.000484180295
104      -0.000498968581
105      -0.000517127226
106      -0.003425222342
107      -0.001159900300
108      -0.000057355271
109       0.000036505204
110       0.000013453240
111       0.000057533212
112      -0.000029698003
113      -0.000020890764
114      -0.000146192145
115      -0.000250393465
116      -0.000459361948
117       0.000192731890
118       0.000261696902
119       0.000756871589
120      -0.000150205179
121       0.001286852755
122      -0.000525860021
123       0.000642822902
124      -0.000047786374
125       0.000076381283
126       0.000859846443
127       0.001086119808
128      -0.000021686495
129      -0.000193712057
130      -0.000052888645
131      -0.000019070885
132      -0.000184533340
133      -0.000095050876
134      -0.000063714069
135       0.000010815165
136      -0.000080330671
137      -0.000026339340
138      -0.000386259766
139      -0.000710963176
140       0.000029218903
141       0.000031765850
142      -0.000064045256
143       0.000455344316
144       0.001838395334
145       0.003788362628
146       0.000562581061
147       0.001481692590
148      -0.001050378946
149       0.000432421857
150       0.002744364445
151       0.005323416926
152      -0.001833321166
153       0.000337772311
154       0.000701926812
155       0.000434246960
156       0.002628072172
157       0.004971314679
158       0.001082257724
159      -0.000153721795
160       0.001657623515
 Sym=     1a
 Ene= -1.07457362628439E+00
 Spin= Alpha
 Occup= 2.000000
  1       0.088586378716
  2       0.208737027920
  3      -0.300084743650
  4      -0.393483048556
  5      -0.119753199550
  6      -0.026252977007
  7      -0.003449307357
  8       0.114386472528
  9      -0.020621493520
 10      -0.002384415364
 11       0.087045099333
 12      -0.004749592228
 13       0.000387172794
 14       0.005738690020
 15      -0.006329943406
 16       0.002432911260
 17       0.000408617971
 18      -0.000829295352
 19       0.000036511592
 20      -0.014306885694
 21       0.004053788182
 22       0.001253889543
 23      -0.003388918544
 24       0.000468259247
 25       0.002567312506
 26      -0.001455753609
 27      -0.000256881531
 28       0.000491766046
 29       0.000066726225
 30       0.000119008876
 31      -0.000023143208
 32       0.057616204056
 33       0.121362057778
 34      -0.186858608590
 35      -0.156159096009
 36      -0.022803446368
 37       0.028567308699
 38       0.004822415035
 39      -0.131919610738
 40       0.008022952830
 41       0.001757220199
 42      -0.036647074826
 43       0.001567544326
 44       0.001814651776
 45       0.000924476881
 46      -0.018407654880
 47       0.007205858445
 48       0.001103189798
 49       0.000388374027
 50      -0.000428616178
 51      -0.004728435809
 52       0.004133150091
 53      -0.000358058828
 54       0.007535940636
 55      -0.001593139651
 56      -0.007558759252
 57       0.003182036467
 58       0.001064027924
 59      -0.003521943690
 60       0.000287364497
 61      -0.000859684039
 62      -0.000018994869
 63       0.008679647640
 64       0.018001166580
 65      -0.027587890482
 66      -0.013758693485
 67       0.007430080052
 68       0.003666886713
 69       0.011799527363
 70      -0.011695975263
 71       0.000766858961
 72      -0.000126272987
 73      -0.003766148338
 74      -0.001030321349
 75      -0.001257861162
 76       0.000619139895
 77      -0.000598156617
 78       0.000390525198
 79       0.001070637342
 80       0.000241325953
 81      -0.000324338977
 82      -0.001477127442
 83       0.000281964265
 84      -0.000186046690
 85      -0.001038825986
 86       0.000291838531
 87      -0.000583549437
 88       0.000346648806
 89       0.000587051097
 90       0.000096062102
 91      -0.000325989021
 92       0.000065460403
 93      -0.000013307406
 94       0.008725086013
 95       0.018093728595
 96      -0.027745060471
 97      -0.013677169154
 98       0.011748200771
 99       0.001656462415
100      -0.010951697738
101      -0.013064677763
102       0.000809564163
103       0.000717329491
104      -0.003426819598
105      -0.000175473413
106       0.001729085772
107       0.001895995777
108      -0.000820183212
109       0.000276164375
110      -0.001025389498
111       0.000219686707
112       0.000152031476
113      -0.001245097300
114       0.000295100358
115       0.000614174715
116      -0.001260961449
117       0.000215090561
118      -0.000690082105
119       0.000411509962
120      -0.000540875174
121       0.000011333579
122       0.000096289715
123       0.000059021113
124      -0.000047605534
125      -0.005202194693
126      -0.005111122422
127      -0.001751471508
128       0.000208425727
129       0.001213312533
130       0.000304620898
131      -0.002943524603
132      -0.003227298328
133      -0.000973140247
134       0.000486169017
135       0.000357795053
136      -0.000613896557
137      -0.003194777117
138      -0.003752663343
139      -0.001188000471
140      -0.000228968306
141       0.000614058418
142      -0.000763361006
143      -0.005293333995
144      -0.005322266025
145      -0.002392277180
146      -0.000275694432
147      -0.001254532670
148       0.000110265907
149      -0.003185912721
150      -0.003559788832
151      -0.001733835973
152       0.000486307718
153      -0.000594624069
154      -0.000648527531
155      -0.002934195965
156      -0.003270996654
157      -0.000995262870
158      -0.000235598535
159      -0.000300505530
160      -0.000740495470
 Sym=     1a
 Ene= -7.89542856353902E-01
 Spin= Alpha
 Occup= 2.000000
  1      -0.030375645208
  2      -0.072278225522
  3       0.109452528223
  4       0.140408602114
  5       0.068400946174
  6       0.000371322684
  7      -0.000335875163
  8       0.002962218445
  9      -0.000073026269
 10      -0.000509682877
 11       0.004541449336
 12       0.001202570109
 13      -0.001696836693
 14       0.006502333610
 15       0.000535834213
 16      -0.000178376123
 17      -0.000076499503
 18       0.000401791484
 19      -0.000063375259
 20       0.000460559301
 21       0.000636496818
 22      -0.000093327741
 23       0.001096632986
 24      -0.000298739622
 25      -0.000113261797
 26       0.000067761037
 27       0.000019757556
 28      -0.000203641604
 29       0.000013681944
 30      -0.000070867376
 31       0.000015132226
 32       0.043310063758
 33       0.092582667128
 34      -0.146688587695
 35      -0.146995757924
 36      -0.034378135264
 37      -0.027951073681
 38      -0.004249890575
 39       0.129233724217
 40      -0.017368820228
 41      -0.004687105124
 42       0.077253717598
 43      -0.004770419491
 44       0.003282558530
 45       0.014525306290
 46       0.006024683764
 47      -0.000762749681
 48      -0.000907448597
 49       0.006717939789
 50      -0.001128188709
 51       0.005737419524
 52      -0.000897551312
 53       0.000480770158
 54       0.006965243833
 55      -0.001362330045
 56      -0.000125192152
 57      -0.000873614105
 58       0.000311598206
 59      -0.002564186484
 60       0.000495798720
 61      -0.000723098843
 62      -0.000043769895
 63       0.059083823798
 64       0.125739188265
 65      -0.188447417991
 66      -0.219340372895
 67      -0.016279768637
 68       0.004332219548
 69       0.037454561950
 70      -0.001860255230
 71       0.003989188549
 72       0.032980202769
 73      -0.001157484248
 74      -0.000817038525
 75       0.001015758536
 76       0.002389236889
 77       0.001515657692
 78       0.000315103858
 79       0.001510224989
 80       0.002551433513
 81      -0.000798769891
 82       0.004847119327
 83      -0.000468585464
 84       0.002472678213
 85       0.006144508049
 86      -0.001901084397
 87       0.000706817765
 88       0.000064765126
 89      -0.001667322031
 90       0.003863799147
 91      -0.001067174666
 92       0.000950274818
 93       0.001118673125
 94       0.059132416134
 95       0.125819914249
 96      -0.187696386396
 97      -0.224360361379
 98      -0.005958331124
 99      -0.002957232117
100      -0.036924409324
101      -0.006775782820
102      -0.002943696887
103      -0.035612464705
104      -0.006490597461
105       0.001459099866
106      -0.000571118664
107       0.002865135500
108       0.001026826482
109      -0.000072785969
110      -0.002019887845
111       0.002655173374
112      -0.000091054600
113       0.005024429501
114      -0.001255353828
115      -0.005470444394
116       0.005672649478
117      -0.000031600492
118       0.001538995997
119       0.001290397566
120       0.000295576327