
                                 *****************
                                 * O   R   C   A *
                                 *****************

           --- An Ab Initio, DFT and Semiempirical electronic structure package ---

                  #######################################################
                  #                        -***-                        #
                  #          Department of theory and spectroscopy      #
                  #               Directorship: Frank Neese             #
                  #        Max Planck Institute fuer Kohlenforschung    #
                  #                Kaiser Wilhelm Platz 1               #
                  #                 D-45470 Muelheim/Ruhr               #
                  #                      Germany                        #
                  #                                                     #
                  #                  All rights reserved                #
                  #                        -***-                        #
                  #######################################################


                         Program Version 4.2.1 -  RELEASE  -


 With contributions from (in alphabetic order):
   Daniel Aravena         : Magnetic Suceptibility
   Michael Atanasov       : Ab Initio Ligand Field Theory (pilot matlab implementation)
   Alexander A. Auer      : GIAO ZORA, VPT2
   Ute Becker             : Parallelization
   Giovanni Bistoni       : ED, misc. LED, open-shell LED, HFLD
   Martin Brehm           : Molecular dynamics
   Dmytro Bykov           : SCF Hessian
   Vijay G. Chilkuri      : MRCI spin determinant printing, contributions to CSF-ICE
   Dipayan Datta          : RHF DLPNO-CCSD density
   Achintya Kumar Dutta   : EOM-CC, STEOM-CC
   Dmitry Ganyushin       : Spin-Orbit,Spin-Spin,Magnetic field MRCI
   Miquel Garcia          : C-PCM Hessian, Gaussian charge scheme
   Yang Guo               : DLPNO-NEVPT2, CIM, IAO-localization
   Andreas Hansen         : Spin unrestricted coupled pair/coupled cluster methods
   Benjamin Helmich-Paris : CASSCF linear response (MC-RPA)
   Lee Huntington         : MR-EOM, pCC
   Robert Izsak           : Overlap fitted RIJCOSX, COSX-SCS-MP3, EOM
   Christian Kollmar      : KDIIS, OOCD, Brueckner-CCSD(T), CCSD density
   Simone Kossmann        : Meta GGA functionals, TD-DFT gradient, OOMP2, MP2 Hessian
   Martin Krupicka        : AUTO-CI
   Lucas Lang             : DCDCAS
   Dagmar Lenk            : GEPOL surface, SMD
   Dimitrios Liakos       : Extrapolation schemes; Compound Job, initial MDCI parallelization
   Dimitrios Manganas     : Further ROCIS development; embedding schemes
   Dimitrios Pantazis     : SARC Basis sets
   Taras Petrenko         : DFT Hessian,TD-DFT gradient, ASA, ECA, R-Raman, ABS, FL, XAS/XES, NRVS
   Peter Pinski           : DLPNO-MP2, DLPNO-MP2 Gradient
   Christoph Reimann      : Effective Core Potentials
   Marius Retegan         : Local ZFS, SOC
   Christoph Riplinger    : Optimizer, TS searches, QM/MM, DLPNO-CCSD(T), (RO)-DLPNO pert. Triples
   Tobias Risthaus        : Range-separated hybrids, TD-DFT gradient, RPA, STAB
   Michael Roemelt        : Original ROCIS implementation
   Masaaki Saitow         : Open-shell DLPNO-CCSD energy and density
   Barbara Sandhoefer     : DKH picture change effects
   Avijit Sen             : IP-ROCIS
   Kantharuban Sivalingam : CASSCF convergence, NEVPT2, FIC-MRCI
   Bernardo de Souza      : ESD, SOC TD-DFT
   Georgi Stoychev        : AutoAux, RI-MP2 NMR
   Willem Van den Heuvel  : Paramagnetic NMR
   Boris Wezisla          : Elementary symmetry handling
   Frank Wennmohs         : Technical directorship


 We gratefully acknowledge several colleagues who have allowed us to
 interface, adapt or use parts of their codes:
   Stefan Grimme, W. Hujo, H. Kruse,             : VdW corrections, initial TS optimization,
                  C. Bannwarth                     DFT functionals, gCP, sTDA/sTD-DF
   Ed Valeev, F. Pavosevic, A. Kumar             : LibInt (2-el integral package), F12 methods
   Garnet Chan, S. Sharma, J. Yang, R. Olivares  : DMRG
   Ulf Ekstrom                                   : XCFun DFT Library
   Mihaly Kallay                                 : mrcc  (arbitrary order and MRCC methods)
   Andreas Klamt, Michael Diedenhofen            : otool_cosmo (COSMO solvation model)
   Jiri Pittner, Ondrej Demel                    : Mk-CCSD
   Frank Weinhold                                : gennbo (NPA and NBO analysis)
   Christopher J. Cramer and Donald G. Truhlar   : smd solvation model
   Lars Goerigk                                  : TD-DFT with DH, B97 family of functionals
   V. Asgeirsson, H. Jonsson                     : NEB implementation
   FAccTs GmbH                                   : IRC, NEB, NEB-TS, Multilevel, MM, QM/MM, CI optimization
   S Lehtola, MJT Oliveira, MAL Marques          : LibXC Library


 Your calculation uses the libint2 library for the computation of 2-el integrals
 For citations please refer to: http://libint.valeyev.net

 Your ORCA version has been built with support for libXC version: 4.2.3
 For citations please refer to: https://tddft.org/programs/libxc/

 This ORCA versions uses:
   CBLAS   interface :  Fast vector & matrix operations
   LAPACKE interface :  Fast linear algebra routines
   SCALAPACK package :  Parallel linear algebra routines



Reading of a custom basis requested
Basis file         : system.bas
READING GTO-BASIS: OXYGEN
READING GTO-BASIS: CARBON
READING GTO-BASIS: HYDROGEN
Basis successfully read

Reading of a custom AuxJ basis requested
Basis file: system.aux
READING GTO-BASIS: OXYGEN
READING GTO-BASIS: CARBON
READING GTO-BASIS: HYDROGEN
Basis read successfully!

----- Orbital basis set information -----
----- AuxJ basis set information -----
================================================================================
                                        WARNINGS
                       Please study these warnings very carefully!
================================================================================


INFO   : the flag for use of LIBINT has been found!

================================================================================
                                       INPUT FILE
================================================================================
NAME = temp.inp
|  1> * xyz  0 1
|  2>   O    0.176612    9.365963    3.821232
|  3>   C    0.433991    9.407453    2.644050
|  4>   C    0.713961   10.708818    1.938522
|  5>   C    0.490824    8.161114    1.799478
|  6>   H    0.771158   11.521249    2.660248
|  7>   H    1.642611   10.648606    1.364065
|  8>   H   -0.087821   10.916208    1.222610
|  9>   H    0.169423    7.300001    2.381938
| 10>   H    1.514532    8.001255    1.447966
| 11>   H   -0.134947    8.269053    0.909228
| 12> * 
| 13> 
| 14> %pal
| 15> nprocs 26
| 16> end
| 17> 
| 18> %basis
| 19> GTOName ="system.bas";
| 20> GTOAuxName ="system.aux";
| 21> end
| 22>  
| 23> 
| 24> %pointcharges "background.crg"
| 25> ! DFT PBE0 TightSCF  
| 26> 
| 27> 
| 28>                          ****END OF INPUT****
================================================================================

                       ****************************
                       * Single Point Calculation *
                       ****************************

---------------------------------
CARTESIAN COORDINATES (ANGSTROEM)
---------------------------------
  O      0.176612    9.365963    3.821232
  C      0.433991    9.407453    2.644050
  C      0.713961   10.708818    1.938522
  C      0.490824    8.161114    1.799478
  H      0.771158   11.521249    2.660248
  H      1.642611   10.648606    1.364065
  H     -0.087821   10.916208    1.222610
  H      0.169423    7.300001    2.381938
  H      1.514532    8.001255    1.447966
  H     -0.134947    8.269053    0.909228

----------------------------
CARTESIAN COORDINATES (A.U.)
----------------------------
  NO LB      ZA    FRAG     MASS         X           Y           Z
   0 O     8.0000    0    15.999    0.333748   17.699105    7.221082
   1 C     6.0000    0    12.011    0.820124   17.777510    4.996530
   2 C     6.0000    0    12.011    1.349191   20.236733    3.663276
   3 C     6.0000    0    12.011    0.927523   15.422270    3.400521
   4 H     1.0000    0     1.008    1.457277   21.772005    5.027140
   5 H     1.0000    0     1.008    3.104085   20.122949    2.577709
   6 H     1.0000    0     1.008   -0.165958   20.628644    2.310398
   7 H     1.0000    0     1.008    0.320163   13.795003    4.501210
   8 H     1.0000    0     1.008    2.862051   15.120181    2.736259
   9 H     1.0000    0     1.008   -0.255013   15.626246    1.718192

--------------------------------
INTERNAL COORDINATES (ANGSTROEM)
--------------------------------
 O      0   0   0     0.000000000000     0.00000000     0.00000000
 C      1   0   0     1.205704288317     0.00000000     0.00000000
 C      2   1   0     1.506553624306   121.77750213     0.00000000
 C      2   1   3     1.506616326738   121.79625087   180.09358965
 H      3   2   1     1.088211397499   110.12502257     7.24845780
 H      3   2   1     1.093625691127   110.86904260   129.44076064
 H      3   2   1     1.094712281546   109.49935866   247.01701694
 H      4   2   1     1.088151576376   110.08653485     6.00341550
 H      4   2   1     1.094117752022   109.64917033   245.55768824
 H      4   2   1     1.093519654447   110.67889383   128.04340545

---------------------------
INTERNAL COORDINATES (A.U.)
---------------------------
 O      0   0   0     0.000000000000     0.00000000     0.00000000
 C      1   0   0     2.278450903413     0.00000000     0.00000000
 C      2   1   0     2.846973756004   121.77750213     0.00000000
 C      2   1   3     2.847092246430   121.79625087   180.09358965
 H      3   2   1     2.056421517084   110.12502257     7.24845780
 H      3   2   1     2.066653049250   110.86904260   129.44076064
 H      3   2   1     2.068706407562   109.49935866   247.01701694
 H      4   2   1     2.056308471546   110.08653485     6.00341550
 H      4   2   1     2.067582909583   109.64917033   245.55768824
 H      4   2   1     2.066452668965   110.67889383   128.04340545

---------------------
BASIS SET INFORMATION
---------------------
There are 3 groups of distinct atoms

 Group   1 Type O   : 11s6p2d1f contracted to 5s3p2d1f pattern {62111/411/11/1}
 Group   2 Type C   : 11s6p2d1f contracted to 5s3p2d1f pattern {62111/411/11/1}
 Group   3 Type H   : 5s1p contracted to 3s1p pattern {311/1}

Atom   0O    basis set group =>   1
Atom   1C    basis set group =>   2
Atom   2C    basis set group =>   2
Atom   3C    basis set group =>   2
Atom   4H    basis set group =>   3
Atom   5H    basis set group =>   3
Atom   6H    basis set group =>   3
Atom   7H    basis set group =>   3
Atom   8H    basis set group =>   3
Atom   9H    basis set group =>   3
---------------------------------
AUXILIARY/J BASIS SET INFORMATION
---------------------------------
There are 3 groups of distinct atoms

 Group   1 Type O   : 8s6p5d3f1g contracted to 8s6p4d3f1g pattern {11111111/111111/2111/111/1}
 Group   2 Type C   : 8s6p5d3f1g contracted to 8s6p4d3f1g pattern {11111111/111111/2111/111/1}
 Group   3 Type H   : 4s3p2d contracted to 4s2p1d pattern {1111/21/2}

Atom   0O    basis set group =>   1
Atom   1C    basis set group =>   2
Atom   2C    basis set group =>   2
Atom   3C    basis set group =>   2
Atom   4H    basis set group =>   3
Atom   5H    basis set group =>   3
Atom   6H    basis set group =>   3
Atom   7H    basis set group =>   3
Atom   8H    basis set group =>   3
Atom   9H    basis set group =>   3

Checking for AutoStart:
The File: temp.gbw exists
Trying to determine its content:
     ... Fine, the file contains calculation information
     ... Fine, the calculation information was read
     ... Fine, the file contains a basis set
     ... Fine, the basis set was read
     ... Fine, the file contains a geometry
     ... Fine, the geometry was read
     ... Fine, the file contains a set of orbitals
     ... Fine, the orbitals can be read
     => possible old guess file was deleted
     => GBW file was renamed to GES file
     => GES file is set as startup file
     => Guess is set to MORead
     ... now leaving AutoStart



           ************************************************************
           *        Program running with 26 parallel MPI-processes    *
           *              working on a common directory               *
           ************************************************************
------------------------------------------------------------------------------
                           ORCA GTO INTEGRAL CALCULATION
------------------------------------------------------------------------------

                         BASIS SET STATISTICS AND STARTUP INFO

 # of primitive gaussian shells          ...  116
 # of primitive gaussian functions       ...  232
 # of contracted shells                  ...   68
 # of contracted basis functions         ...  160
 Highest angular momentum                ...    3
 Maximum contraction depth               ...    6
 Integral package used                   ... LIBINT
 Integral threshhold            Thresh   ...  2.500e-11
 Primitive cut-off              TCut     ...  2.500e-12


------------------------------ INTEGRAL EVALUATION ----------------------------


 * One electron integrals 
 Pre-screening matrix                    ... done
 Shell pair data                         ... done (   0.001 sec)

ENUC WAS=  0.000000000


           ************************************************************
           *        Program running with 26 parallel MPI-processes    *
           *              working on a common directory               *
           ************************************************************
------------------------------------------------------------------------------
                            ORCA POINT-CHARGE CORRECTION
------------------------------------------------------------------------------

BaseName                           ... temp
Point charge file                  ... background.crg

Reading the GBW file               ... done
Reading the one-electron matrix    ... done
Reading the point charges          ... done
Number of point charges            ... 891
Reading the nuclear-repulsion      ... done
Charge-Nuclei interaction          ... done
The nuclear repulsion file was updated
Doing the point charge correction  ... done
Storing the one-electron matrix    ... done

ENUC IS = 120.003933738


           ************************************************************
           *        Program running with 26 parallel MPI-processes    *
           *              working on a common directory               *
           ************************************************************
-------------------------------------------------------------------------------
                                 ORCA SCF
-------------------------------------------------------------------------------

------------
SCF SETTINGS
------------
Hamiltonian:
 Density Functional     Method          .... DFT(GTOs)
 Exchange Functional    Exchange        .... PBE
   PBE kappa parameter   XKappa         ....  0.804000
   PBE mue parameter    XMuePBE         ....  0.219520
 Correlation Functional Correlation     .... PBE
   PBE beta parameter  CBetaPBE         ....  0.066725
 LDA part of GGA corr.  LDAOpt          .... PW91-LDA
 Gradients option       PostSCFGGA      .... off
 Hybrid DFT is turned on
   Fraction HF Exchange ScalHFX         ....  0.250000
   Scaling of DF-GGA-X  ScalDFX         ....  0.750000
   Scaling of DF-GGA-C  ScalDFC         ....  1.000000
   Scaling of DF-LDA-C  ScalLDAC        ....  1.000000
   Perturbative correction              ....  0.000000
   Density functional embedding theory  .... OFF
   NL short-range parameter             ....  6.900000


General Settings:
 Integral files         IntName         .... temp
 Hartree-Fock type      HFTyp           .... RHF
 Total Charge           Charge          ....    0
 Multiplicity           Mult            ....    1
 Number of Electrons    NEL             ....   32
 Basis Dimension        Dim             ....  160
 Nuclear Repulsion      ENuc            ....    120.0039337383 Eh

Convergence Acceleration:
 DIIS                   CNVDIIS         .... on
   Start iteration      DIISMaxIt       ....    12
   Startup error        DIISStart       ....  0.200000
   # of expansion vecs  DIISMaxEq       ....     5
   Bias factor          DIISBfac        ....   1.050
   Max. coefficient     DIISMaxC        ....  10.000
 Newton-Raphson         CNVNR           .... off
 SOSCF                  CNVSOSCF        .... on
   Start iteration      SOSCFMaxIt      ....   150
   Startup grad/error   SOSCFStart      ....  0.003300
 Level Shifting         CNVShift        .... on
   Level shift para.    LevelShift      ....    0.2500
   Turn off err/grad.   ShiftErr        ....    0.0010
 Zerner damping         CNVZerner       .... off
 Static damping         CNVDamp         .... on
   Fraction old density DampFac         ....    0.7000
   Max. Damping (<1)    DampMax         ....    0.9800
   Min. Damping (>=0)   DampMin         ....    0.0000
   Turn off err/grad.   DampErr         ....    0.1000
 Fernandez-Rico         CNVRico         .... off

SCF Procedure:
 Maximum # iterations   MaxIter         ....   125
 SCF integral mode      SCFMode         .... Direct
   Integral package                     .... LIBINT
 Reset frequency        DirectResetFreq ....    20
 Integral Threshold     Thresh          ....  2.500e-11 Eh
 Primitive CutOff       TCut            ....  2.500e-12 Eh

Convergence Tolerance:
 Convergence Check Mode ConvCheckMode   .... Total+1el-Energy
 Convergence forced     ConvForced      .... 0
 Energy Change          TolE            ....  1.000e-08 Eh
 1-El. energy change                    ....  1.000e-05 Eh
 Orbital Gradient       TolG            ....  1.000e-05
 Orbital Rotation angle TolX            ....  1.000e-05
 DIIS Error             TolErr          ....  5.000e-07


Diagonalization of the overlap matrix:
Smallest eigenvalue                        ... 3.783e-04
Time for diagonalization                   ...    0.005 sec
Threshold for overlap eigenvalues          ... 1.000e-08
Number of eigenvalues below threshold      ... 0
Time for construction of square roots      ...    0.003 sec
Total time needed                          ...    0.008 sec

---------------------
INITIAL GUESS: MOREAD
---------------------
Guess MOs are being read from file: temp.ges
Input Geometry matches current geometry (good)
Input basis set matches current basis set (good)
MOs were renormalized
MOs were reorthogonalized (Cholesky)
                      ------------------
                      INITIAL GUESS DONE (   0.0 sec)
                      ------------------
-------------------
DFT GRID GENERATION
-------------------

General Integration Accuracy     IntAcc      ...  4.340
Radial Grid Type                 RadialGrid  ... Gauss-Chebyshev
Angular Grid (max. acc.)         AngularGrid ... Lebedev-110
Angular grid pruning method      GridPruning ... 3 (G Style)
Weight generation scheme         WeightScheme... Becke
Basis function cutoff            BFCut       ...    1.0000e-11
Integration weight cutoff        WCut        ...    1.0000e-14
Grids for H and He will be reduced by one unit

# of grid points (after initial pruning)     ...  11448 (   0.0 sec)
# of grid points (after weights+screening)   ...  10907 (   0.0 sec)
nearest neighbour list constructed           ...    0.0 sec
Grid point re-assignment to atoms done       ...    0.0 sec
Grid point division into batches done        ...    0.0 sec
Reduced shell lists constructed in    0.0 sec

Total number of grid points                  ...    10907
Total number of batches                      ...      177
Average number of points per batch           ...       61
Average number of grid points per atom       ...     1091
Average number of shells per batch           ...    30.38 (44.67%)
Average number of basis functions per batch  ...    71.62 (44.77%)
Average number of large shells per batch     ...    22.12 (72.84%)
Average number of large basis fcns per batch ...    51.38 (71.73%)
Maximum spatial batch extension              ...  14.68, 19.43, 14.55 au
Average spatial batch extension              ...   0.43,  0.47,  0.39 au

Time for grid setup =    0.024 sec

--------------
SCF ITERATIONS
--------------
ITER       Energy         Delta-E        Max-DP      RMS-DP      [F,P]     Damp
               ***  Starting incremental Fock matrix formation  ***
                      *** Initiating the SOSCF procedure ***
                      *** Re-Reading the Fockian *** 
                      *** Removing any level shift *** 
ITER      Energy       Delta-E        Grad      Rot      Max-DP    RMS-DP
  0   -193.01650120 -193.0165012013  0.000009  0.000009  0.000029  0.000001
               *** Restarting incremental Fock matrix formation ***
  1   -193.01650120  -0.0000000006  0.000003  0.000007  0.000008  0.000000
  2   -193.01650120   0.0000000000  0.000009  0.000009  0.000009  0.000000
                  ***Gradient check signals convergence***
              ***Rediagonalizing the Fockian in SOSCF/NRSCF***

               *****************************************************
               *                     SUCCESS                       *
               *           SCF CONVERGED AFTER   3 CYCLES          *
               *****************************************************

Setting up the final grid:

General Integration Accuracy     IntAcc      ...  4.670
Radial Grid Type                 RadialGrid  ... Gauss-Chebyshev
Angular Grid (max. acc.)         AngularGrid ... Lebedev-302
Angular grid pruning method      GridPruning ... 3 (G Style)
Weight generation scheme         WeightScheme... Becke
Basis function cutoff            BFCut       ...    1.0000e-11
Integration weight cutoff        WCut        ...    1.0000e-14
Grids for H and He will be reduced by one unit

# of grid points (after initial pruning)     ...  45212 (   0.0 sec)
# of grid points (after weights+screening)   ...  42620 (   0.0 sec)
nearest neighbour list constructed           ...    0.0 sec
Grid point re-assignment to atoms done       ...    0.0 sec
Grid point division into batches done        ...    0.2 sec
Reduced shell lists constructed in    0.2 sec

Total number of grid points                  ...    42620
Total number of batches                      ...      671
Average number of points per batch           ...       63
Average number of grid points per atom       ...     4262
Average number of shells per batch           ...    20.07 (29.52%)
Average number of basis functions per batch  ...    44.22 (27.64%)
Average number of large shells per batch     ...    13.96 (69.56%)
Average number of large basis fcns per batch ...    29.00 (65.58%)
Maximum spatial batch extension              ...  16.56, 15.13, 14.38 au
Average spatial batch extension              ...   0.33,  0.30,  0.30 au

Final grid set up in    0.2 sec
Final integration                            ... done (   0.0 sec)
Change in XC energy                          ...    -0.000112416
Integrated number of electrons               ...    32.000044170
Previous integrated no of electrons          ...    31.999304229

----------------
TOTAL SCF ENERGY
----------------

Total Energy       :         -193.01661362 Eh           -5252.24908 eV

Components:
Nuclear Repulsion  :          120.00393374 Eh            3265.47305 eV
Electronic Energy  :         -313.02054736 Eh           -8517.72213 eV
One Electron Energy:         -498.56607412 Eh          -13566.67259 eV
Two Electron Energy:          185.54552676 Eh            5048.95047 eV

Virial components:
Potential Energy   :         -385.14044024 Eh          -10480.20418 eV
Kinetic Energy     :          192.12382662 Eh            5227.95511 eV
Virial Ratio       :            2.00464694


DFT components:
N(Alpha)           :       16.000022085049 electrons
N(Beta)            :       16.000022085049 electrons
N(Total)           :       32.000044170098 electrons
E(X)               :      -19.370781350575 Eh       
E(C)               :       -1.042476426834 Eh       
E(XC)              :      -20.413257777409 Eh       
DFET-embed. en.    :        0.000000000000 Eh       

---------------
SCF CONVERGENCE
---------------

  Last Energy change         ...   -5.0045e-10  Tolerance :   1.0000e-08
  Last MAX-Density change    ...    3.1952e-06  Tolerance :   1.0000e-07
  Last RMS-Density change    ...    6.5261e-08  Tolerance :   5.0000e-09
  Last Orbital Gradient      ...    2.8213e-07  Tolerance :   1.0000e-05
  Last Orbital Rotation      ...    4.2785e-07  Tolerance :   1.0000e-05

             **** THE GBW FILE WAS UPDATED (temp.gbw) ****
             **** DENSITY FILE WAS UPDATED (temp.scfp) ****
             **** ENERGY FILE WAS UPDATED (temp.en.tmp) ****
             **** THE GBW FILE WAS UPDATED (temp.gbw) ****
             **** DENSITY FILE WAS UPDATED (temp.scfp) ****
----------------
ORBITAL ENERGIES
----------------

  NO   OCC          E(Eh)            E(eV) 
   0   2.0000     -19.199752      -522.4518 
   1   2.0000     -10.321062      -280.8504 
   2   2.0000     -10.224788      -278.2306 
   3   2.0000     -10.223877      -278.2058 
   4   2.0000      -1.083453       -29.4823 
   5   2.0000      -0.796960       -21.6864 
   6   2.0000      -0.734388       -19.9837 
   7   2.0000      -0.556460       -15.1420 
   8   2.0000      -0.481945       -13.1144 
   9   2.0000      -0.479908       -13.0590 
  10   2.0000      -0.476806       -12.9745 
  11   2.0000      -0.416070       -11.3219 
  12   2.0000      -0.414319       -11.2742 
  13   2.0000      -0.393488       -10.7073 
  14   2.0000      -0.374420       -10.1885 
  15   2.0000      -0.271987        -7.4012 
  16   0.0000      -0.017086        -0.4649 
  17   0.0000       0.046181         1.2566 
  18   0.0000       0.096198         2.6177 
  19   0.0000       0.106914         2.9093 
  20   0.0000       0.118314         3.2195 
  21   0.0000       0.136501         3.7144 
  22   0.0000       0.145751         3.9661 
  23   0.0000       0.149671         4.0727 
  24   0.0000       0.172308         4.6887 
  25   0.0000       0.191556         5.2125 
  26   0.0000       0.211288         5.7494 
  27   0.0000       0.229854         6.2546 
  28   0.0000       0.231881         6.3098 
  29   0.0000       0.300398         8.1743 
  30   0.0000       0.308311         8.3896 
  31   0.0000       0.314144         8.5483 
  32   0.0000       0.376861        10.2549 
  33   0.0000       0.382285        10.4025 
  34   0.0000       0.413230        11.2446 
  35   0.0000       0.421550        11.4710 
  36   0.0000       0.432023        11.7559 
  37   0.0000       0.440467        11.9857 
  38   0.0000       0.453594        12.3429 
  39   0.0000       0.473135        12.8746 
  40   0.0000       0.474044        12.8994 
  41   0.0000       0.499076        13.5805 
  42   0.0000       0.545474        14.8431 
  43   0.0000       0.575835        15.6693 
  44   0.0000       0.588123        16.0036 
  45   0.0000       0.623033        16.9536 
  46   0.0000       0.665329        18.1045 
  47   0.0000       0.671865        18.2824 
  48   0.0000       0.732800        19.9405 
  49   0.0000       0.797621        21.7044 
  50   0.0000       0.827826        22.5263 
  51   0.0000       0.841064        22.8865 
  52   0.0000       0.909856        24.7584 
  53   0.0000       0.946643        25.7595 
  54   0.0000       0.981505        26.7081 
  55   0.0000       0.985776        26.8243 
  56   0.0000       1.003760        27.3137 
  57   0.0000       1.057260        28.7695 
  58   0.0000       1.113640        30.3037 
  59   0.0000       1.115006        30.3409 
  60   0.0000       1.138717        30.9861 
  61   0.0000       1.232693        33.5433 
  62   0.0000       1.393041        37.9066 
  63   0.0000       1.408608        38.3302 
  64   0.0000       1.449081        39.4315 
  65   0.0000       1.505624        40.9701 
  66   0.0000       1.513490        41.1842 
  67   0.0000       1.522206        41.4213 
  68   0.0000       1.531096        41.6633 
  69   0.0000       1.535860        41.7929 
  70   0.0000       1.566710        42.6324 
  71   0.0000       1.571239        42.7556 
  72   0.0000       1.589087        43.2412 
  73   0.0000       1.636409        44.5290 
  74   0.0000       1.656736        45.0821 
  75   0.0000       1.709676        46.5226 
  76   0.0000       1.851013        50.3686 
  77   0.0000       1.871986        50.9393 
  78   0.0000       1.881018        51.1851 
  79   0.0000       1.958838        53.3027 
  80   0.0000       2.006339        54.5952 
  81   0.0000       2.028399        55.1956 
  82   0.0000       2.047053        55.7031 
  83   0.0000       2.092612        56.9429 
  84   0.0000       2.117991        57.6335 
  85   0.0000       2.166733        58.9598 
  86   0.0000       2.173753        59.1508 
  87   0.0000       2.205253        60.0080 
  88   0.0000       2.215461        60.2858 
  89   0.0000       2.331333        63.4388 
  90   0.0000       2.353068        64.0302 
  91   0.0000       2.353886        64.0525 
  92   0.0000       2.399098        65.2828 
  93   0.0000       2.457873        66.8821 
  94   0.0000       2.477542        67.4173 
  95   0.0000       2.523744        68.6746 
  96   0.0000       2.532071        68.9012 
  97   0.0000       2.563884        69.7668 
  98   0.0000       2.565136        69.8009 
  99   0.0000       2.659415        72.3663 
 100   0.0000       2.704662        73.5976 
 101   0.0000       2.757923        75.0469 
 102   0.0000       2.790720        75.9394 
 103   0.0000       2.812620        76.5353 
 104   0.0000       2.851284        77.5874 
 105   0.0000       2.910148        79.1892 
 106   0.0000       2.974758        80.9473 
 107   0.0000       2.981375        81.1273 
 108   0.0000       3.006703        81.8165 
 109   0.0000       3.076222        83.7083 
 110   0.0000       3.077132        83.7330 
 111   0.0000       3.101969        84.4089 
 112   0.0000       3.112951        84.7077 
 113   0.0000       3.127541        85.1047 
 114   0.0000       3.146051        85.6084 
 115   0.0000       3.231979        87.9466 
 116   0.0000       3.293086        89.6094 
 117   0.0000       3.304328        89.9153 
 118   0.0000       3.317526        90.2745 
 119   0.0000       3.377213        91.8986 
 120   0.0000       3.385538        92.1252 
 121   0.0000       3.425569        93.2145 
 122   0.0000       3.455140        94.0191 
 123   0.0000       3.493895        95.0737 
 124   0.0000       3.528736        96.0218 
 125   0.0000       3.544977        96.4637 
 126   0.0000       3.678217       100.0894 
 127   0.0000       3.767422       102.5168 
 128   0.0000       3.864269       105.1521 
 129   0.0000       3.866954       105.2252 
 130   0.0000       3.902757       106.1994 
 131   0.0000       3.983082       108.3852 
 132   0.0000       3.987941       108.5174 
 133   0.0000       4.012167       109.1766 
 134   0.0000       4.067865       110.6922 
 135   0.0000       4.326386       117.7269 
 136   0.0000       4.368813       118.8814 
 137   0.0000       4.388434       119.4154 
 138   0.0000       4.406618       119.9102 
 139   0.0000       4.448370       121.0463 
 140   0.0000       4.532797       123.3437 
 141   0.0000       4.667550       127.0105 
 142   0.0000       4.774882       129.9311 
 143   0.0000       4.791333       130.3788 
 144   0.0000       5.198935       141.4702 
 145   0.0000       5.203403       141.5918 
 146   0.0000       5.611073       152.6851 
 147   0.0000       5.694896       154.9660 
 148   0.0000       6.159767       167.6158 
 149   0.0000       6.355977       172.9549 
 150   0.0000       6.398787       174.1198 
 151   0.0000       6.520777       177.4394 
 152   0.0000       6.547743       178.1731 
 153   0.0000       6.815667       185.4637 
 154   0.0000       7.002560       190.5493 
 155   0.0000       7.083237       192.7447 
 156   0.0000      22.392427       609.3289 
 157   0.0000      22.407003       609.7256 
 158   0.0000      23.052412       627.2880 
 159   0.0000      43.919437      1195.1086 

                    ********************************
                    * MULLIKEN POPULATION ANALYSIS *
                    ********************************

-----------------------
MULLIKEN ATOMIC CHARGES
-----------------------
   0 O :   -0.371202
   1 C :    0.228638
   2 C :   -0.398305
   3 C :   -0.344722
   4 H :    0.164926
   5 H :    0.124030
   6 H :    0.171612
   7 H :    0.129823
   8 H :    0.145030
   9 H :    0.150170
Sum of atomic charges:   -0.0000000

--------------------------------
MULLIKEN REDUCED ORBITAL CHARGES
--------------------------------
  0 O s       :     3.795310  s :     3.795310
      pz      :     1.376162  p :     4.543916
      px      :     1.354870
      py      :     1.812884
      dz2     :     0.010125  d :     0.030081
      dxz     :     0.010391
      dyz     :     0.008206
      dx2y2   :     0.000855
      dxy     :     0.000504
      f0      :     0.000622  f :     0.001895
      f+1     :     0.000561
      f-1     :     0.000549
      f+2     :     0.000074
      f-2     :     0.000061
      f+3     :     0.000015
      f-3     :     0.000013
  1 C s       :     3.186444  s :     3.186444
      pz      :     0.768746  p :     2.353419
      px      :     0.660243
      py      :     0.924430
      dz2     :     0.042078  d :     0.213298
      dxz     :     0.045263
      dyz     :     0.087093
      dx2y2   :     0.018456
      dxy     :     0.020409
      f0      :     0.003403  f :     0.018202
      f+1     :     0.003155
      f-1     :     0.007039
      f+2     :     0.001254
      f-2     :     0.001735
      f+3     :     0.000753
      f-3     :     0.000862
  2 C s       :     3.206876  s :     3.206876
      pz      :     1.063963  p :     3.140132
      px      :     1.064891
      py      :     1.011279
      dz2     :     0.006111  d :     0.048107
      dxz     :     0.013209
      dyz     :     0.012886
      dx2y2   :     0.010928
      dxy     :     0.004972
      f0      :     0.000138  f :     0.003190
      f+1     :     0.000074
      f-1     :     0.000787
      f+2     :     0.001443
      f-2     :     0.000372
      f+3     :     0.000204
      f-3     :     0.000171
  3 C s       :     3.183060  s :     3.183060
      pz      :     1.025997  p :     3.113238
      px      :     1.087681
      py      :     0.999560
      dz2     :     0.009500  d :     0.045337
      dxz     :     0.009091
      dyz     :     0.011427
      dx2y2   :     0.009651
      dxy     :     0.005668
      f0      :     0.000251  f :     0.003086
      f+1     :     0.000281
      f-1     :     0.000675
      f+2     :     0.001074
      f-2     :     0.000394
      f+3     :     0.000281
      f-3     :     0.000131
  4 H s       :     0.813395  s :     0.813395
      pz      :     0.007975  p :     0.021679
      px      :     0.004401
      py      :     0.009302
  5 H s       :     0.854707  s :     0.854707
      pz      :     0.007149  p :     0.021263
      px      :     0.009648
      py      :     0.004466
  6 H s       :     0.806719  s :     0.806719
      pz      :     0.007845  p :     0.021668
      px      :     0.008993
      py      :     0.004830
  7 H s       :     0.848745  s :     0.848745
      pz      :     0.006606  p :     0.021433
      px      :     0.005026
      py      :     0.009800
  8 H s       :     0.832900  s :     0.832900
      pz      :     0.005678  p :     0.022070
      px      :     0.011646
      py      :     0.004745
  9 H s       :     0.828348  s :     0.828348
      pz      :     0.009872  p :     0.021483
      px      :     0.007296
      py      :     0.004315


                     *******************************
                     * LOEWDIN POPULATION ANALYSIS *
                     *******************************

----------------------
LOEWDIN ATOMIC CHARGES
----------------------
   0 O :    0.084374
   1 C :   -0.379041
   2 C :   -0.273523
   3 C :   -0.268462
   4 H :    0.136178
   5 H :    0.132819
   6 H :    0.149966
   7 H :    0.129109
   8 H :    0.146219
   9 H :    0.142362

-------------------------------
LOEWDIN REDUCED ORBITAL CHARGES
-------------------------------
  0 O s       :     3.395844  s :     3.395844
      pz      :     1.506625  p :     4.445279
      px      :     1.281204
      py      :     1.657449
      dz2     :     0.027504  d :     0.068331
      dxz     :     0.013958
      dyz     :     0.024778
      dx2y2   :     0.000867
      dxy     :     0.001224
      f0      :     0.002267  f :     0.006172
      f+1     :     0.001314
      f-1     :     0.002136
      f+2     :     0.000146
      f-2     :     0.000283
      f+3     :     0.000013
      f-3     :     0.000013
  1 C s       :     2.777011  s :     2.777011
      pz      :     0.991537  p :     2.692270
      px      :     0.671800
      py      :     1.028934
      dz2     :     0.201786  d :     0.795972
      dxz     :     0.136567
      dyz     :     0.316173
      dx2y2   :     0.065367
      dxy     :     0.076079
      f0      :     0.022010  f :     0.113787
      f+1     :     0.018663
      f-1     :     0.046384
      f+2     :     0.005999
      f-2     :     0.010101
      f+3     :     0.004951
      f-3     :     0.005679
  2 C s       :     2.836759  s :     2.836759
      pz      :     1.072538  p :     3.192319
      px      :     1.068283
      py      :     1.051498
      dz2     :     0.020594  d :     0.221590
      dxz     :     0.052302
      dyz     :     0.064774
      dx2y2   :     0.062953
      dxy     :     0.020968
      f0      :     0.003526  f :     0.022855
      f+1     :     0.001437
      f-1     :     0.005441
      f+2     :     0.004361
      f-2     :     0.001962
      f+3     :     0.003180
      f-3     :     0.002949
  3 C s       :     2.835921  s :     2.835921
      pz      :     1.066177  p :     3.188649
      px      :     1.075676
      py      :     1.046796
      dz2     :     0.036745  d :     0.220959
      dxz     :     0.041882
      dyz     :     0.058590
      dx2y2   :     0.059907
      dxy     :     0.023836
      f0      :     0.003442  f :     0.022933
      f+1     :     0.002598
      f-1     :     0.004832
      f+2     :     0.003772
      f-2     :     0.002794
      f+3     :     0.003151
      f-3     :     0.002345
  4 H s       :     0.800455  s :     0.800455
      pz      :     0.024536  p :     0.063367
      px      :     0.013092
      py      :     0.025738
  5 H s       :     0.804700  s :     0.804700
      pz      :     0.020236  p :     0.062481
      px      :     0.029157
      py      :     0.013088
  6 H s       :     0.786675  s :     0.786675
      pz      :     0.023217  p :     0.063359
      px      :     0.026414
      py      :     0.013728
  7 H s       :     0.808221  s :     0.808221
      pz      :     0.020149  p :     0.062670
      px      :     0.015271
      py      :     0.027250
  8 H s       :     0.790698  s :     0.790698
      pz      :     0.016052  p :     0.063083
      px      :     0.033723
      py      :     0.013309
  9 H s       :     0.794484  s :     0.794484
      pz      :     0.028994  p :     0.063154
      px      :     0.021143
      py      :     0.013017


                      *****************************
                      * MAYER POPULATION ANALYSIS *
                      *****************************

  NA   - Mulliken gross atomic population
  ZA   - Total nuclear charge
  QA   - Mulliken gross atomic charge
  VA   - Mayer's total valence
  BVA  - Mayer's bonded valence
  FA   - Mayer's free valence

  ATOM       NA         ZA         QA         VA         BVA        FA
  0 O      8.3712     8.0000    -0.3712     2.0914     2.0914    -0.0000
  1 C      5.7714     6.0000     0.2286     4.1497     4.1497     0.0000
  2 C      6.3983     6.0000    -0.3983     3.7569     3.7569    -0.0000
  3 C      6.3447     6.0000    -0.3447     3.7772     3.7772    -0.0000
  4 H      0.8351     1.0000     0.1649     0.9837     0.9837    -0.0000
  5 H      0.8760     1.0000     0.1240     0.9670     0.9670     0.0000
  6 H      0.8284     1.0000     0.1716     0.9692     0.9692    -0.0000
  7 H      0.8702     1.0000     0.1298     0.9942     0.9942    -0.0000
  8 H      0.8550     1.0000     0.1450     0.9755     0.9755    -0.0000
  9 H      0.8498     1.0000     0.1502     0.9663     0.9663    -0.0000

  Mayer bond orders larger than 0.100000
B(  0-O ,  1-C ) :   2.0663 B(  1-C ,  2-C ) :   0.9972 B(  1-C ,  3-C ) :   1.0204 
B(  2-C ,  4-H ) :   0.9588 B(  2-C ,  5-H ) :   0.9455 B(  2-C ,  6-H ) :   0.9303 
B(  3-C ,  7-H ) :   0.9637 B(  3-C ,  8-H ) :   0.9306 B(  3-C ,  9-H ) :   0.9373 


-------
TIMINGS
-------

Total SCF time: 0 days 0 hours 0 min 1 sec 

Total time                  ....       1.702 sec
Sum of individual times     ....       1.455 sec  ( 85.5%)

Fock matrix formation       ....       1.186 sec  ( 69.7%)
  XC integration            ....       0.082 sec  (  6.9% of F)
    Basis function eval.    ....       0.013 sec  ( 15.8% of XC)
    Density eval.           ....       0.013 sec  ( 16.4% of XC)
    XC-Functional eval.     ....       0.003 sec  (  3.9% of XC)
    XC-Potential eval.      ....       0.023 sec  ( 28.0% of XC)
Diagonalization             ....       0.005 sec  (  0.3%)
Density matrix formation    ....       0.002 sec  (  0.1%)
Population analysis         ....       0.007 sec  (  0.4%)
Initial guess               ....       0.009 sec  (  0.5%)
Orbital Transformation      ....       0.000 sec  (  0.0%)
Orbital Orthonormalization  ....       0.004 sec  (  0.3%)
DIIS solution               ....       0.001 sec  (  0.1%)
SOSCF solution              ....       0.009 sec  (  0.5%)
Grid generation             ....       0.236 sec  ( 13.9%)

-------------------------   --------------------
FINAL SINGLE POINT ENERGY      -193.016613618793
-------------------------   --------------------


                            ***************************************
                            *     ORCA property calculations      *
                            ***************************************

                                    ---------------------
                                    Active property flags
                                    ---------------------
   (+) Dipole Moment


------------------------------------------------------------------------------
                       ORCA ELECTRIC PROPERTIES CALCULATION
------------------------------------------------------------------------------

Dipole Moment Calculation                       ... on
Quadrupole Moment Calculation                   ... off
Polarizability Calculation                      ... off
GBWName                                         ... temp.gbw
Electron density file                           ... temp.scfp
The origin for moment calculation is the CENTER OF MASS  = ( 0.859452, 17.784358  4.810753)

-------------
DIPOLE MOMENT
-------------
                                X             Y             Z
Electronic contribution:     -0.86228      -0.10427       3.48929
Nuclear contribution   :      1.07117       0.17750      -4.94258
                        -----------------------------------------
Total Dipole Moment    :      0.20889       0.07323      -1.45329
                        -----------------------------------------
Magnitude (a.u.)       :      1.47005
Magnitude (Debye)      :      3.73658



--------------------
Rotational spectrum 
--------------------
 
Rotational constants in cm-1:     0.341602     0.286936     0.165457 
Rotational constants in MHz : 10240.984489  8602.114949  4960.286098 

 Dipole components along the rotational axes: 
x,y,z [a.u.] :     0.011734    -1.466097    -0.107122 
x,y,z [Debye]:     0.029825    -3.726524    -0.272284 

 

Timings for individual modules:

Sum of individual times         ...        3.129 sec (=   0.052 min)
GTO integral calculation        ...        0.873 sec (=   0.015 min)  27.9 %
SCF iterations                  ...        2.257 sec (=   0.038 min)  72.1 %
                             ****ORCA TERMINATED NORMALLY****
TOTAL RUN TIME: 0 days 0 hours 0 minutes 4 seconds 544 msec
