[Molden Format]
[Title]
 Molden file created by orca_2mkl for BaseName=system

[Atoms] AU
O    1   8          0.6573034412        18.6112342813         4.7226504861 
C    2   6          1.2243970259        17.6725336113         2.7255047598 
C    3   6          0.8571495387        19.0520998294         0.2623412305 
C    4   6          2.3344334953        15.0560377035         2.5590784689 
H    5   1          0.2758811183        20.9923515710         0.6178988718 
H    6   1          2.5898432104        19.0221816853        -0.8636804322 
H    7   1         -0.5978999001        18.0955903803        -0.8545625037 
H    8   1          2.3258428003        14.1660277170         4.4127807535 
H    9   1          4.2765749630        15.1680077564         1.8587610815 
H   10   1          1.2799493050        13.9005230849         1.2088634770 
[GTO]
  1 0
s   6 1.0 
    27032.3800000000         0.8598581393
     4052.3870000000         1.6055304059
      922.3272000000         2.7458780898
      261.2407000000         4.2987677378
       85.3546400000         5.8797670930
       31.0350400000         6.3163984679
s   2 1.0 
       12.2608600000         2.9812145398
        4.9987080000         0.9419560379
s   1 1.0 
        1.1703110000         0.8019292557
s   1 1.0 
        0.4647474000         0.4011647998
s   1 1.0 
        0.1850454000         0.2010799703
p   4 1.0 
       63.2749500000         3.0572013698
       14.6270500000         3.3844845670
        4.4501220000         2.9474258212
        1.5275800000         1.7118271901
p   1 1.0 
        0.5293512000         0.6436058239
p   1 1.0 
        0.1747842000         0.1610897108
d   1 1.0 
        2.3140000000        12.3767310624
d   1 1.0 
        0.6450000000         1.3234257612
f   1 1.0 
        1.4280000000        12.7097950062

  2 0
s   6 1.0 
    13575.3500000000         0.5435905009
     2035.2330000000         1.0145543008
      463.2256000000         1.7315731015
      131.2002000000         2.6910371555
       42.8530200000         3.6044547316
       15.5841900000         3.7025565440
s   2 1.0 
        6.2067140000         1.8383540114
        2.5764900000         0.5447576606
s   1 1.0 
        0.5769634000         0.4718145074
s   1 1.0 
        0.2297283000         0.2364944571
s   1 1.0 
        0.0951644400         0.1221141848
p   4 1.0 
       34.6972300000         1.3596652360
        7.9582620000         1.4512590746
        2.3780830000         1.2709231872
        0.8143321000         0.8025721831
p   1 1.0 
        0.2888755000         0.3018759228
p   1 1.0 
        0.1005682000         0.0807264648
d   1 1.0 
        1.0970000000         3.3522135855
d   1 1.0 
        0.3180000000         0.3838994974
f   1 1.0 
        0.7610000000         3.0840084332

  3 0
s   6 1.0 
    13575.3500000000         0.5435905009
     2035.2330000000         1.0145543008
      463.2256000000         1.7315731015
      131.2002000000         2.6910371555
       42.8530200000         3.6044547316
       15.5841900000         3.7025565440
s   2 1.0 
        6.2067140000         1.8383540114
        2.5764900000         0.5447576606
s   1 1.0 
        0.5769634000         0.4718145074
s   1 1.0 
        0.2297283000         0.2364944571
s   1 1.0 
        0.0951644400         0.1221141848
p   4 1.0 
       34.6972300000         1.3596652360
        7.9582620000         1.4512590746
        2.3780830000         1.2709231872
        0.8143321000         0.8025721831
p   1 1.0 
        0.2888755000         0.3018759228
p   1 1.0 
        0.1005682000         0.0807264648
d   1 1.0 
        1.0970000000         3.3522135855
d   1 1.0 
        0.3180000000         0.3838994974
f   1 1.0 
        0.7610000000         3.0840084332

  4 0
s   6 1.0 
    13575.3500000000         0.5435905009
     2035.2330000000         1.0145543008
      463.2256000000         1.7315731015
      131.2002000000         2.6910371555
       42.8530200000         3.6044547316
       15.5841900000         3.7025565440
s   2 1.0 
        6.2067140000         1.8383540114
        2.5764900000         0.5447576606
s   1 1.0 
        0.5769634000         0.4718145074
s   1 1.0 
        0.2297283000         0.2364944571
s   1 1.0 
        0.0951644400         0.1221141848
p   4 1.0 
       34.6972300000         1.3596652360
        7.9582620000         1.4512590746
        2.3780830000         1.2709231872
        0.8143321000         0.8025721831
p   1 1.0 
        0.2888755000         0.3018759228
p   1 1.0 
        0.1005682000         0.0807264648
d   1 1.0 
        1.0970000000         3.3522135855
d   1 1.0 
        0.3180000000         0.3838994974
f   1 1.0 
        0.7610000000         3.0840084332

  5 0
s   3 1.0 
       34.0613400000         0.2556298765
        5.1235750000         0.4613598729
        1.1646630000         0.6811216893
s   1 1.0 
        0.3272304000         0.3083545241
s   1 1.0 
        0.1030724000         0.1296483171
p   1 1.0 
        0.8000000000         1.0784563492

  6 0
s   3 1.0 
       34.0613400000         0.2556298765
        5.1235750000         0.4613598729
        1.1646630000         0.6811216893
s   1 1.0 
        0.3272304000         0.3083545241
s   1 1.0 
        0.1030724000         0.1296483171
p   1 1.0 
        0.8000000000         1.0784563492

  7 0
s   3 1.0 
       34.0613400000         0.2556298765
        5.1235750000         0.4613598729
        1.1646630000         0.6811216893
s   1 1.0 
        0.3272304000         0.3083545241
s   1 1.0 
        0.1030724000         0.1296483171
p   1 1.0 
        0.8000000000         1.0784563492

  8 0
s   3 1.0 
       34.0613400000         0.2556298765
        5.1235750000         0.4613598729
        1.1646630000         0.6811216893
s   1 1.0 
        0.3272304000         0.3083545241
s   1 1.0 
        0.1030724000         0.1296483171
p   1 1.0 
        0.8000000000         1.0784563492

  9 0
s   3 1.0 
       34.0613400000         0.2556298765
        5.1235750000         0.4613598729
        1.1646630000         0.6811216893
s   1 1.0 
        0.3272304000         0.3083545241
s   1 1.0 
        0.1030724000         0.1296483171
p   1 1.0 
        0.8000000000         1.0784563492

 10 0
s   3 1.0 
       34.0613400000         0.2556298765
        5.1235750000         0.4613598729
        1.1646630000         0.6811216893
s   1 1.0 
        0.3272304000         0.3083545241
s   1 1.0 
        0.1030724000         0.1296483171
p   1 1.0 
        0.8000000000         1.0784563492

[5D]
[7F]
[9G]
[MO]
 Sym=     1a
 Ene= -1.92092287160967E+01
 Spin= Alpha
 Occup= 2.000000
  1       0.435382668900
  2       0.639603298526
  3       0.034926823755
  4      -0.028827653036
  5       0.010156270440
  6       0.000557935880
  7      -0.000879879296
  8      -0.001816014343
  9      -0.001587293707
 10       0.002601949147
 11       0.005478714468
 12       0.000138938318
 13      -0.000223807053
 14      -0.000438819133
 15       0.000194162291
 16      -0.000125265002
 17       0.000225267495
 18       0.000008689160
 19      -0.000016948090
 20      -0.000956171619
 21       0.000586837561
 22      -0.001000849409
 23       0.000063337209
 24       0.000190563739
 25       0.000067741254
 26      -0.000079934331
 27       0.000123805770
 28      -0.000037533693
 29      -0.000065992146
 30      -0.000020471401
 31       0.000001207865
 32       0.000042983856
 33      -0.000257759197
 34       0.000761561787
 35       0.004303960877
 36      -0.001416305014
 37      -0.000162429894
 38       0.000266633794
 39       0.000570338899
 40      -0.002109809533
 41       0.003511165703
 42       0.007451459058
 43       0.001257113996
 44      -0.002059562373
 45      -0.004504712501
 46       0.000248339942
 47      -0.000126925332
 48       0.000211766275
 49      -0.000055439414
 50      -0.000103015215
 51       0.002919340204
 52      -0.001870828770
 53       0.003306162433
 54       0.000099126412
 55      -0.000240923471
 56       0.000099222810
 57       0.000016213419
 58      -0.000125650263
 59      -0.000102601482
 60      -0.000102709648
 61      -0.000127598353
 62       0.000033619442
 63       0.000017451436
 64      -0.000083957197
 65       0.000349640091
 66       0.001156993961
 67      -0.001932214156
 68       0.000025825937
 69      -0.000020484812
 70       0.000192874851
 71      -0.000049446556
 72      -0.000873881688
 73       0.000487569992
 74      -0.000379543640
 75       0.000793669159
 76       0.000059780250
 77       0.000083068861
 78      -0.000004958979
 79      -0.000030057478
 80      -0.000043458758
 81      -0.000051551669
 82       0.000449678404
 83       0.000207946311
 84      -0.000306841718
 85       0.000836807588
 86       0.000819082866
 87       0.000061767127
 88       0.000053224745
 89      -0.000086625215
 90       0.000046825692
 91       0.000040885789
 92      -0.000063748921
 93       0.000039784556
 94       0.000017695392
 95      -0.000085134821
 96       0.000353026236
 97       0.001180007356
 98      -0.001799144492
 99      -0.000098778211
100       0.000150041103
101       0.000081423098
102      -0.000039556590
103       0.000939954618
104      -0.000389629467
105       0.000122117306
106      -0.000373971106
107       0.000758007973
108       0.000016159644
109      -0.000016079526
110       0.000022636233
111      -0.000070902411
112      -0.000080395278
113      -0.001019026137
114      -0.000111226364
115       0.000753208369
116       0.000305692993
117       0.000151894120
118      -0.000063361612
119       0.000041907913
120      -0.000097989214
121      -0.000069149727
122      -0.000055293718
123       0.000001462391
124      -0.000029455671
125       0.000127717874
126       0.001058500204
127      -0.000163970385
128       0.000027365526
129      -0.000203007905
130       0.000034080073
131      -0.000000575973
132      -0.000495492047
133       0.000363215074
134       0.000032718015
135      -0.000100416345
136      -0.000158243773
137      -0.000060250699
138      -0.000883807721
139       0.000415480016
140      -0.000050761061
141      -0.000087607596
142      -0.000187112040
143       0.000130263686
144       0.001077852363
145      -0.000168164037
146      -0.000005405426
147       0.000153808561
148      -0.000145068960
149      -0.000055425650
150      -0.000874032390
151       0.000403296780
152       0.000137694655
153      -0.000069906034
154      -0.000149547803
155      -0.000004652495
156      -0.000549004826
157       0.000355175802
158       0.000054283082
159      -0.000065188285
160      -0.000176245473
 Sym=     1a
 Ene= -1.03249379779955E+01
 Spin= Alpha
 Occup= 2.000000
  1      -0.000084698485
  2      -0.000357899220
  3       0.003646181410
  4      -0.014951508972
  5       0.000068375896
  6       0.000171774227
  7      -0.000284137988
  8      -0.000603818517
  9      -0.002170085641
 10       0.003590457618
 11       0.007632408540
 12      -0.000044789867
 13       0.000079396097
 14       0.000163532093
 15      -0.000009955337
 16      -0.000020389367
 17       0.000081436692
 18       0.000094144901
 19       0.000084447934
 20      -0.001969327205
 21       0.001248104983
 22      -0.002256485781
 23      -0.000091941492
 24       0.000203780422
 25       0.000182145840
 26      -0.000270064693
 27       0.000495435997
 28      -0.000065632834
 29      -0.000167127125
 30       0.000003369703
 31      -0.000018910710
 32       0.467185705386
 33       0.608420413311
 34       0.038227050564
 35      -0.023234527576
 36       0.017943377581
 37      -0.000271630887
 38       0.000440649523
 39       0.000975861699
 40      -0.003681036103
 41       0.006128999007
 42       0.012919361542
 43       0.001573451705
 44      -0.002593175970
 45      -0.005478956194
 46       0.001404250428
 47      -0.000660157590
 48       0.000858547124
 49      -0.000693601067
 50      -0.000836293048
 51       0.003664719778
 52      -0.002868924245
 53       0.005960375141
 54       0.001995752218
 55       0.001307699295
 56       0.000705417570
 57      -0.000769718001
 58       0.001233620493
 59      -0.000371414013
 60      -0.000671492861
 61      -0.000216939666
 62       0.000004260680
 63       0.000560377274
 64       0.000836788300
 65      -0.000888617538
 66       0.008280515453
 67      -0.007699651045
 68       0.000040047533
 69      -0.000091966245
 70      -0.000022719607
 71       0.000159628781
 72      -0.001362164205
 73       0.004570106052
 74      -0.000799495304
 75       0.001487403173
 76      -0.002129788011
 77      -0.000104874612
 78      -0.000018845670
 79       0.000056531393
 80       0.000000100826
 81      -0.000018716169
 82       0.001012178799
 83      -0.000112191733
 84       0.000113766038
 85       0.000309628253
 86       0.000344845754
 87      -0.000114291246
 88      -0.000222124687
 89       0.000706505582
 90       0.000209026650
 91       0.000113948672
 92      -0.000122524270
 93       0.000132662595
 94       0.000563184576
 95       0.000840040369
 96      -0.000898940318
 97       0.008360955583
 98      -0.007747431785
 99      -0.000006813039
100       0.000035528628
101      -0.000095901948
102      -0.001868219839
103       0.004219323348
104       0.001398322945
105       0.001267222565
106      -0.002393129905
107       0.000241112281
108       0.000061102635
109       0.000031772332
110      -0.000055843393
111       0.000050985842
112       0.000062520375
113      -0.000230584583
114      -0.000441030888
115       0.000977221496
116      -0.000109334052
117      -0.000256203092
118       0.000125318766
119      -0.000297042985
120       0.000470484411
121      -0.000040544337
122      -0.000055813574
123       0.000517061355
124      -0.000228633815
125       0.000005774773
126      -0.000238510481
127       0.000416362017
128      -0.000026915220
129       0.000059334263
130      -0.000357837181
131       0.000023183768
132      -0.000461705099
133       0.000121174867
134      -0.000093539038
135       0.000095981926
136      -0.000207211663
137      -0.000035248273
138      -0.000501092088
139      -0.000388330887
140       0.000014936502
141       0.000135352843
142      -0.000209738103
143       0.000005933685
144      -0.000232961915
145       0.000429744777
146       0.000163125904
147      -0.000294948060
148      -0.000139604004
149      -0.000030445659
150      -0.000502732747
151      -0.000342715849
152       0.000050170319
153      -0.000246207999
154      -0.000021908424
155       0.000018488687
156      -0.000472156091
157       0.000073994497
158       0.000152674856
159      -0.000196342949
160      -0.000003515749
 Sym=     1a
 Ene= -1.02179476965238E+01
 Spin= Alpha
 Occup= 2.000000
  1       0.000004674081
  2      -0.000054581287
  3       0.000621221328
  4      -0.002601170660
  5       0.000719223753
  6       0.000057827918
  7      -0.000153326877
  8      -0.000004369818
  9      -0.000481088001
 10       0.001160057836
 11       0.000266145880
 12       0.000024016758
 13      -0.000285521094
 14       0.000556765852
 15      -0.000027841024
 16      -0.000013413697
 17       0.000040660670
 18      -0.000000029382
 19      -0.000008978875
 20       0.000225486493
 21       0.000076626315
 22      -0.000227881326
 23       0.000082820974
 24       0.000126932631
 25       0.000005156197
 26       0.000024852575
 27      -0.000069063755
 28      -0.000017409812
 29      -0.000005070169
 30       0.000006188813
 31      -0.000007532364
 32      -0.000627693790
 33      -0.000726413886
 34      -0.000033415944
 35       0.002897499160
 36      -0.009340017053
 37       0.000202223205
 38      -0.000495784393
 39       0.000137492970
 40      -0.001716151685
 41       0.004337194128
 42      -0.001207533730
 43      -0.002133548234
 44       0.005370942307
 45      -0.002746677234
 46      -0.000028954924
 47       0.000027954237
 48      -0.000021373855
 49       0.000110756448
 50       0.000116552472
 51       0.003886799862
 52      -0.000155801607
 53      -0.000645727034
 54       0.001487816780
 55       0.001568539561
 56      -0.000031389191
 57       0.000177964423
 58      -0.000382382530
 59      -0.000014162044
 60      -0.000064139382
 61      -0.000779191806
 62       0.000314448864
 63      -0.004471255999
 64      -0.005818947757
 65       0.000182963760
 66      -0.003588406749
 67      -0.004216650751
 68       0.000050853521
 69      -0.000100828212
 70       0.000035480486
 71      -0.000854100917
 72       0.002658251088
 73      -0.002088935579
 74      -0.000380486823
 75       0.002320498343
 76      -0.000602850347
 77      -0.000044319480
 78       0.000002806007
 79       0.000021350815
 80       0.000048793213
 81       0.000024962373
 82      -0.000115577726
 83      -0.000576670477
 84       0.001311123435
 85       0.000025619083
 86       0.000039472309
 87       0.000027418897
 88      -0.000035091014
 89       0.000064201913
 90       0.000087820099
 91       0.000101974121
 92      -0.000032611251
 93       0.000030201859
 94       0.467058450117
 95       0.608645724791
 96       0.034458932890
 97      -0.014173600444
 98       0.032574175748
 99      -0.000116214624
100       0.000408251519
101      -0.000070650753
102      -0.000177170787
103       0.000524434841
104       0.000119725179
105      -0.000909513380
106       0.003461475708
107      -0.000871481195
108       0.000063444182
109      -0.000025693776
110       0.000003258617
111      -0.000055779907
112      -0.000040155980
113      -0.000317913423
114      -0.000019728384
115       0.000343653578
116       0.000287681502
117       0.000213631563
118       0.000685347717
119      -0.000311235789
120      -0.001025802039
121      -0.000637439974
122      -0.000585747613
123      -0.000786437745
124       0.000064136850
125      -0.000066904043
126      -0.000826497863
127      -0.001006681644
128      -0.000047049816
129       0.000148835095
130      -0.000064399019
131       0.000028514115
132       0.000236236691
133       0.000195997763
134       0.000024026798
135       0.000057809959
136       0.000087865201
137       0.000035844749
138       0.000440612589
139       0.000816630367
140       0.000009158462
141       0.000017270217
142       0.000098652564
143      -0.000454358302
144      -0.001816579607
145      -0.003767110280
146      -0.000021535072
147      -0.000780899542
148       0.001725840004
149      -0.000435269335
150      -0.002755591992
151      -0.005336367142
152       0.001863985827
153       0.000029435179
154      -0.000699492096
155      -0.000436687763
156      -0.002644401597
157      -0.004963709681
158      -0.000941363819
159      -0.001141976610
160      -0.001316524271
 Sym=     1a
 Ene= -1.02174308303365E+01
 Spin= Alpha
 Occup= 2.000000
  1      -0.000004738820
  2       0.000055196855
  3      -0.000629026265
  4       0.002639804410
  5      -0.000703906637
  6       0.000014234369
  7      -0.000083286990
  8       0.000138212260
  9      -0.000048619587
 10       0.000452453162
 11      -0.001194536886
 12       0.000183351001
 13      -0.000580717713
 14      -0.000107305368
 15      -0.000039355012
 16      -0.000002812297
 17       0.000006496532
 18      -0.000023521501
 19      -0.000022515250
 20       0.000289723213
 21       0.000040973775
 22      -0.000140107705
 23       0.000099704648
 24       0.000112569530
 25       0.000011408990
 26      -0.000029907671
 27       0.000053702604
 28      -0.000002524629
 29      -0.000006463140
 30       0.000040782673
 31      -0.000018422038
 32       0.000637047609
 33       0.000737100009
 34       0.000024355294
 35      -0.002910497123
 36       0.009461276573
 37       0.000130674413
 38      -0.000374189430
 39       0.000369398886
 40      -0.001091252263
 41       0.003278907550
 42      -0.003217731266
 43      -0.001889308472
 44       0.004965177077
 45      -0.003251707494
 46       0.000119984818
 47      -0.000008583762
 48      -0.000043310578
 49      -0.000082219897
 50      -0.000074227954
 51       0.001835812725
 52       0.001328816577
 53      -0.003621078194
 54       0.000638407209
 55       0.001029322732
 56      -0.000324354634
 57      -0.000148701518
 58       0.000690359589
 59       0.000416104725
 60       0.000283871975
 61      -0.000142701172
 62       0.000134230133
 63      -0.467059819052
 64      -0.608650153742
 65      -0.034448358624
 66       0.014232286632
 67      -0.032379328799
 68      -0.000042469773
 69       0.000321511171
 70      -0.000297459510
 71       0.000036788069
 72       0.000152420189
 73      -0.000503540406
 74      -0.000392517756
 75       0.002678804388
 76      -0.002403277032
 77      -0.000047250809
 78       0.000028765680
 79      -0.000016087116
 80       0.000062950773
 81       0.000046153860
 82      -0.000058465899
 83      -0.000011444552
 84      -0.000063928193
 85      -0.000439066564
 86      -0.000368006183
 87      -0.000523326215
 88      -0.000227752055
 89       0.000692022154
 90       0.000906429558
 91       0.000550014835
 92       0.000779521495
 93      -0.000666462446
 94      -0.004470909645
 95      -0.005833989802
 96      -0.000834669489
 97       0.003816475370
 98       0.003561495272
 99       0.000044587823
100      -0.000086702210
101       0.000078464094
102      -0.001141752906
103       0.003033359162
104      -0.001195258003
105      -0.000143670259
106       0.001798883937
107      -0.001517282607
108       0.000011663993
109      -0.000019721920
110      -0.000003863650
111      -0.000054869176
112      -0.000040479586
113      -0.001086966946
114       0.000358588496
115      -0.000404741834
116      -0.000482999456
117      -0.000583267132
118       0.000062347302
119       0.000030330932
120      -0.000020561125
121       0.000062070416
122       0.000043501060
123      -0.000100552655
124       0.000025965970
125       0.000456837473
126       0.001845606119
127       0.003777756192
128       0.000541323573
129      -0.001778682377
130      -0.000368709783
131       0.000435159971
132       0.002607207568
133       0.004922098038
134      -0.001611609626
135       0.000036828102
136       0.001140776231
137       0.000433039248
138       0.002732012423
139       0.005331437230
140       0.001367175510
141       0.000884271009
142       0.001138553186
143       0.000076641401
144       0.000876240898
145       0.001077015861
146      -0.000043094163
147       0.000149836772
148      -0.000130100221
149      -0.000025812052
150      -0.000357346287
151      -0.000712961206
152       0.000009542862
153      -0.000057274114
154      -0.000051590125
155      -0.000024173964
156      -0.000226128467
157      -0.000091866058
158       0.000083901099
159      -0.000005256628
160      -0.000058037068
 Sym=     1a
 Ene= -1.09317910766853E+00
 Spin= Alpha
 Occup= 2.000000
  1      -0.089013474538
  2      -0.209742454772
  3       0.301186184296
  4       0.395621858218
  5       0.125746477617
  6       0.030164299573
  7      -0.048254423817
  8      -0.101388866626
  9       0.023585485491
 10      -0.037406375553
 11      -0.077810042007
 12       0.003663137795
 13      -0.002627808869
 14      -0.005477872541
 15       0.004312660100
 16      -0.002580791617
 17       0.004503810190
 18      -0.000191269289
 19      -0.000930995198
 20       0.009149716887
 21      -0.006230732058
 22       0.010714064116
 23      -0.000233106240
 24      -0.000545753960
 25      -0.001033763337
 26       0.001238462139
 27      -0.002333766991
 28       0.000345688163
 29       0.001009373609
 30       0.000030097683
 31       0.000068386962
 32      -0.056916799913
 33      -0.119886203301
 34       0.186146219741
 35       0.144721048162
 36       0.021231602046
 37      -0.033286551975
 38       0.055696788408
 39       0.118934425338
 40      -0.008831361989
 41       0.014898923793
 42       0.033414445742
 43       0.001974615287
 44      -0.003283748175
 45       0.003155007636
 46       0.013146057100
 47      -0.007357187429
 48       0.011921721702
 49      -0.002579963699
 50      -0.004185406186
 51       0.004627856106
 52      -0.001304282414
 53       0.000897693560
 54      -0.004692814495
 55      -0.005125073672
 56       0.001861342619
 57      -0.003658837206
 58       0.007531777767
 59      -0.000291820025
 60      -0.001666590692
 61       0.000804209634
 62      -0.000540781188
 63      -0.008114367497
 64      -0.016792337980
 65       0.025184599322
 66       0.014924243753
 67      -0.004395172958
 68       0.000244065130
 69      -0.003936776622
 70       0.015718015002
 71      -0.000666793806
 72       0.001300689709
 73       0.004732529581
 74      -0.000027424955
 75      -0.000290171599
 76      -0.000199938511
 77       0.001310589499
 78      -0.000091714726
 79      -0.000185369670
 80       0.000025734090
 81       0.000081523057
 82       0.001113526898
 83      -0.000656369259
 84       0.001135294706
 85       0.000380907325
 86       0.000085066253
 87       0.000904075011
 88      -0.000307626648
 89       0.000312697622
 90      -0.000089994762
 91      -0.000033601088
 92       0.000039702076
 93       0.000041543198
 94      -0.008207710973
 95      -0.016994812503
 96       0.025721799844
 97       0.014116466502
 98      -0.013909180376
 99      -0.006326213682
100       0.014092180031
101       0.005646736317
102      -0.000819921123
103       0.001983766753
104       0.003714720343
105      -0.000036281344
106      -0.003265515871
107      -0.001137608982
108      -0.000201408173
109      -0.000469468151
110       0.000974821547
111      -0.000549532310
112      -0.000618416344
113       0.000822962124
114      -0.000712580942
115       0.000943536258
116       0.000588020783
117       0.000089127234
118      -0.000210890022
119      -0.000371343339
120       0.000522863440
121      -0.000374575133
122      -0.000517226022
123      -0.000322450883
124       0.000055048462
125       0.004851688658
126       0.004563904985
127       0.002112303668
128       0.000274655010
129      -0.001058067975
130       0.000371844105
131       0.002581644996
132       0.002688334626
133       0.000964130181
134      -0.000286608939
135      -0.000113850772
136       0.000688837571
137       0.002918554361
138       0.003461992935
139       0.001012729322
140       0.000355627136
141      -0.000001445555
142       0.000909801655
143       0.004961422090
144       0.004529101851
145       0.002416612000
146      -0.000175053718
147       0.000931968155
148      -0.000675433743
149       0.002870979493
150       0.003318774628
151       0.002350301061
152      -0.000624807471
153       0.000602646452
154       0.000315333337
155       0.002650960395
156       0.003395493444
157       0.000450974663
158       0.000040430297
159       0.000693752364
160       0.000487367879
 Sym=     1a
 Ene= -7.93496147274556E-01
 Spin= Alpha
 Occup= 2.000000
  1       0.030413116865
  2       0.072402688630
  3      -0.109863187224
  4      -0.140435567321
  5      -0.072716005763
  6       0.001477237155
  7      -0.003583669735
  8      -0.007349218817
  9       0.001618191084
 10      -0.003559577515
 11      -0.007928808057
 12       0.000049135124
 13      -0.003790704426
 14      -0.008350828182
 15      -0.000225252447
 16       0.000154645926
 17      -0.000409693140
 18      -0.000252547236
 19      -0.000146094460
 20       0.000431778249
 21       0.000105106385
 22      -0.000351863794
 23      -0.000425894775
 24      -0.000973967855
 25      -0.000035558348
 26      -0.000003375874
 27       0.000152732367
 28       0.000138897423
 29       0.000031425636
 30       0.000139325833
 31      -0.000049607128
 32      -0.045481749830
 33      -0.097264899569
 34       0.155040146528
 35       0.151595162030
 36       0.033916359143
 37       0.032924068709
 38      -0.055011857363
 39      -0.114377140771
 40       0.019841245356
 41      -0.032137484816
 42      -0.068981888358
 43       0.006747145910
 44      -0.004766937862
 45      -0.012681326674
 46      -0.002766620589
 47       0.002809782038
 48      -0.006707850760
 49      -0.003798969691
 50      -0.003094326313
 51      -0.002338460711
 52       0.003026844335
 53      -0.007086454602
 54      -0.003466946034
 55      -0.002563730889
 56      -0.001101373232
 57      -0.000170422061
 58       0.001392863716
 59       0.001154640689
 60       0.001186331509
 61       0.001407636646
 62      -0.000394074837
 63      -0.058072568330
 64      -0.123560425363
 65       0.184478466283
 66       0.217401824350
 67       0.013276813915
 68       0.009307572389
 69      -0.030386518647
 70       0.023980125413
 71       0.008645690627
 72      -0.027116813129
 73       0.021276949957
 74       0.000575915705
 75      -0.003937894682
 76      -0.000869912152
 77       0.001020452707
 78       0.000991478152
 79      -0.003061228945
 80      -0.001125656711
 81      -0.000867173393
 82       0.001411270563
 83       0.002651132001
 84      -0.007664216397
 85      -0.002319642821
 86      -0.001204520015
 87       0.000525950610
 88       0.000964690571
 89      -0.002828316861
 90      -0.002787258754
 91      -0.001814254556
 92      -0.001071511283
 93       0.000892071758
 94      -0.059202657563
 95      -0.125945098924
 96       0.187285960682
 97       0.225003935927
 98       0.014724154916
 99      -0.012661579102
100       0.035401749177
101      -0.012594113432
102      -0.011661082716
103       0.033421086445
104      -0.012217590298
105      -0.004286297778
106      -0.000805206606
107       0.001053906501
108      -0.001699967884
109       0.000397286339
110      -0.000938485200
111      -0.002171701036
112      -0.002122028925
113      -0.005762460628
114       0.001772013664
115      -0.002949080092
116      -0.005236402388
117      -0.004261784779
118       0.001805519577
119      -0.000080699735
120      -0.003234078795