[Molden Format]
[Title]
 Molden file created by orca_2mkl for BaseName=temp

[Atoms] AU
O    1   8          0.6573034412        18.6112267224         4.7226504861 
C    2   6          1.2243970259        17.6725260524         2.7255047598 
C    3   6          0.8571495387        19.0520922705         0.2623412305 
C    4   6          2.3344334953        15.0560301446         2.5590784689 
H    5   1          0.2758811183        20.9923440121         0.6178988718 
H    6   1          2.5898432104        19.0221741264        -0.8636804322 
H    7   1         -0.5978999001        18.0955828214        -0.8545625037 
H    8   1          2.3258428003        14.1660201581         4.4127807535 
H    9   1          4.2765749630        15.1680001975         1.8587610815 
H   10   1          1.2799493050        13.9005155260         1.2088634770 
[GTO]
  1 0
s   6 1.0 
    27032.3800000000         0.8598581393
     4052.3870000000         1.6055304059
      922.3272000000         2.7458780898
      261.2407000000         4.2987677378
       85.3546400000         5.8797670930
       31.0350400000         6.3163984679
s   2 1.0 
       12.2608600000         2.9812145398
        4.9987080000         0.9419560379
s   1 1.0 
        1.1703110000         0.8019292557
s   1 1.0 
        0.4647474000         0.4011647998
s   1 1.0 
        0.1850454000         0.2010799703
p   4 1.0 
       63.2749500000         3.0572013698
       14.6270500000         3.3844845670
        4.4501220000         2.9474258212
        1.5275800000         1.7118271901
p   1 1.0 
        0.5293512000         0.6436058239
p   1 1.0 
        0.1747842000         0.1610897108
d   1 1.0 
        2.3140000000        12.3767310624
d   1 1.0 
        0.6450000000         1.3234257612
f   1 1.0 
        1.4280000000        12.7097950062

  2 0
s   6 1.0 
    13575.3500000000         0.5435905009
     2035.2330000000         1.0145543008
      463.2256000000         1.7315731015
      131.2002000000         2.6910371555
       42.8530200000         3.6044547316
       15.5841900000         3.7025565440
s   2 1.0 
        6.2067140000         1.8383540114
        2.5764900000         0.5447576606
s   1 1.0 
        0.5769634000         0.4718145074
s   1 1.0 
        0.2297283000         0.2364944571
s   1 1.0 
        0.0951644400         0.1221141848
p   4 1.0 
       34.6972300000         1.3596652360
        7.9582620000         1.4512590746
        2.3780830000         1.2709231872
        0.8143321000         0.8025721831
p   1 1.0 
        0.2888755000         0.3018759228
p   1 1.0 
        0.1005682000         0.0807264648
d   1 1.0 
        1.0970000000         3.3522135855
d   1 1.0 
        0.3180000000         0.3838994974
f   1 1.0 
        0.7610000000         3.0840084332

  3 0
s   6 1.0 
    13575.3500000000         0.5435905009
     2035.2330000000         1.0145543008
      463.2256000000         1.7315731015
      131.2002000000         2.6910371555
       42.8530200000         3.6044547316
       15.5841900000         3.7025565440
s   2 1.0 
        6.2067140000         1.8383540114
        2.5764900000         0.5447576606
s   1 1.0 
        0.5769634000         0.4718145074
s   1 1.0 
        0.2297283000         0.2364944571
s   1 1.0 
        0.0951644400         0.1221141848
p   4 1.0 
       34.6972300000         1.3596652360
        7.9582620000         1.4512590746
        2.3780830000         1.2709231872
        0.8143321000         0.8025721831
p   1 1.0 
        0.2888755000         0.3018759228
p   1 1.0 
        0.1005682000         0.0807264648
d   1 1.0 
        1.0970000000         3.3522135855
d   1 1.0 
        0.3180000000         0.3838994974
f   1 1.0 
        0.7610000000         3.0840084332

  4 0
s   6 1.0 
    13575.3500000000         0.5435905009
     2035.2330000000         1.0145543008
      463.2256000000         1.7315731015
      131.2002000000         2.6910371555
       42.8530200000         3.6044547316
       15.5841900000         3.7025565440
s   2 1.0 
        6.2067140000         1.8383540114
        2.5764900000         0.5447576606
s   1 1.0 
        0.5769634000         0.4718145074
s   1 1.0 
        0.2297283000         0.2364944571
s   1 1.0 
        0.0951644400         0.1221141848
p   4 1.0 
       34.6972300000         1.3596652360
        7.9582620000         1.4512590746
        2.3780830000         1.2709231872
        0.8143321000         0.8025721831
p   1 1.0 
        0.2888755000         0.3018759228
p   1 1.0 
        0.1005682000         0.0807264648
d   1 1.0 
        1.0970000000         3.3522135855
d   1 1.0 
        0.3180000000         0.3838994974
f   1 1.0 
        0.7610000000         3.0840084332

  5 0
s   3 1.0 
       34.0613400000         0.2556298765
        5.1235750000         0.4613598729
        1.1646630000         0.6811216893
s   1 1.0 
        0.3272304000         0.3083545241
s   1 1.0 
        0.1030724000         0.1296483171
p   1 1.0 
        0.8000000000         1.0784563492

  6 0
s   3 1.0 
       34.0613400000         0.2556298765
        5.1235750000         0.4613598729
        1.1646630000         0.6811216893
s   1 1.0 
        0.3272304000         0.3083545241
s   1 1.0 
        0.1030724000         0.1296483171
p   1 1.0 
        0.8000000000         1.0784563492

  7 0
s   3 1.0 
       34.0613400000         0.2556298765
        5.1235750000         0.4613598729
        1.1646630000         0.6811216893
s   1 1.0 
        0.3272304000         0.3083545241
s   1 1.0 
        0.1030724000         0.1296483171
p   1 1.0 
        0.8000000000         1.0784563492

  8 0
s   3 1.0 
       34.0613400000         0.2556298765
        5.1235750000         0.4613598729
        1.1646630000         0.6811216893
s   1 1.0 
        0.3272304000         0.3083545241
s   1 1.0 
        0.1030724000         0.1296483171
p   1 1.0 
        0.8000000000         1.0784563492

  9 0
s   3 1.0 
       34.0613400000         0.2556298765
        5.1235750000         0.4613598729
        1.1646630000         0.6811216893
s   1 1.0 
        0.3272304000         0.3083545241
s   1 1.0 
        0.1030724000         0.1296483171
p   1 1.0 
        0.8000000000         1.0784563492

 10 0
s   3 1.0 
       34.0613400000         0.2556298765
        5.1235750000         0.4613598729
        1.1646630000         0.6811216893
s   1 1.0 
        0.3272304000         0.3083545241
s   1 1.0 
        0.1030724000         0.1296483171
p   1 1.0 
        0.8000000000         1.0784563492

[5D]
[7F]
[9G]
[MO]
 Sym=     1a
 Ene= -1.91997352046628E+01
 Spin= Alpha
 Occup= 2.000000
  1       0.435383176789
  2       0.639605658115
  3       0.034925267219
  4      -0.028849425412
  5       0.010116274706
  6       0.000559365871
  7      -0.000884673532
  8      -0.001837948250
  9      -0.001592327628
 10       0.002611708910
 11       0.005509736257
 12       0.000135578498
 13      -0.000218497058
 14      -0.000433347742
 15       0.000194364310
 16      -0.000125288384
 17       0.000225756173
 18       0.000009126145
 19      -0.000016907309
 20      -0.000961442357
 21       0.000589245515
 22      -0.001005367282
 23       0.000063222702
 24       0.000190859106
 25       0.000068451646
 26      -0.000080316492
 27       0.000124692208
 28      -0.000037611675
 29      -0.000066349289
 30      -0.000020459725
 31       0.000001171884
 32       0.000043157211
 33      -0.000258818730
 34       0.000762341416
 35       0.004336498210
 36      -0.001412121896
 37      -0.000163090136
 38       0.000267742329
 39       0.000572480911
 40      -0.002119230841
 41       0.003526058986
 42       0.007484513006
 43       0.001257289400
 44      -0.002061006236
 45      -0.004491933370
 46       0.000250011072
 47      -0.000127903556
 48       0.000213331130
 49      -0.000055635661
 50      -0.000103465997
 51       0.002926311237
 52      -0.001877782269
 53       0.003318410492
 54       0.000098500777
 55      -0.000243408572
 56       0.000099473155
 57       0.000015807162
 58      -0.000125452322
 59      -0.000103106299
 60      -0.000103552721
 61      -0.000128187914
 62       0.000033723598
 63       0.000017487900
 64      -0.000084122270
 65       0.000350283191
 66       0.001162225544
 67      -0.001923287380
 68       0.000025805026
 69      -0.000020380890
 70       0.000193346389
 71      -0.000048770946
 72      -0.000878242179
 73       0.000491518026
 74      -0.000378722274
 75       0.000789900491
 76       0.000060982166
 77       0.000083486488
 78      -0.000005025477
 79      -0.000030089913
 80      -0.000043488846
 81      -0.000051627801
 82       0.000450305770
 83       0.000209218889
 84      -0.000309409406
 85       0.000837759351
 86       0.000820455545
 87       0.000061664305
 88       0.000053445824
 89      -0.000086962936
 90       0.000046989378
 91       0.000041016228
 92      -0.000063912878
 93       0.000039854390
 94       0.000017707847
 95      -0.000085179781
 96       0.000353098274
 97       0.001182367193
 98      -0.001803654691
 99      -0.000098841191
100       0.000150200507
101       0.000081495251
102      -0.000040822273
103       0.000942494913
104      -0.000388932777
105       0.000122616588
106      -0.000374960179
107       0.000755186341
108       0.000016160990
109      -0.000016164475
110       0.000022742231
111      -0.000071050844
112      -0.000080540396
113      -0.001020540348
114      -0.000111157884
115       0.000754208135
116       0.000305422849
117       0.000151476758
118      -0.000063472898
119       0.000042050778
120      -0.000098198047
121      -0.000069248774
122      -0.000055358121
123       0.000001566573
124      -0.000029507155
125       0.000127901657
126       0.001061225563
127      -0.000163377439
128       0.000027435549
129      -0.000203653294
130       0.000034339516
131      -0.000000544513
132      -0.000495485083
133       0.000362468075
134       0.000032558590
135      -0.000100621525
136      -0.000158476206
137      -0.000060393637
138      -0.000884831029
139       0.000414692850
140      -0.000050673678
141      -0.000087656605
142      -0.000187415402
143       0.000130258551
144       0.001079238140
145      -0.000167113895
146      -0.000005405661
147       0.000153967101
148      -0.000145326701
149      -0.000055525409
150      -0.000873421270
151       0.000403011470
152       0.000137510056
153      -0.000069949815
154      -0.000149674152
155      -0.000004734844
156      -0.000548650396
157       0.000354658288
158       0.000054390123
159      -0.000065099807
160      -0.000176346052
 Sym=     1a
 Ene= -1.03165002173031E+01
 Spin= Alpha
 Occup= 2.000000
  1      -0.000084762152
  2      -0.000357001285
  3       0.003631364643
  4      -0.014920881614
  5       0.000091326368
  6       0.000170648050
  7      -0.000282338225
  8      -0.000599824203
  9      -0.002162158901
 10       0.003577740630
 11       0.007603735728
 12      -0.000043603372
 13       0.000077246846
 14       0.000158395844
 15      -0.000010974607
 16      -0.000019952728
 17       0.000080855794
 18       0.000094618298
 19       0.000085035978
 20      -0.001955585485
 21       0.001240790853
 22      -0.002245035360
 23      -0.000095152146
 24       0.000198992237
 25       0.000179450505
 26      -0.000266946382
 27       0.000490285446
 28      -0.000064308054
 29      -0.000164651045
 30       0.000004006451
 31      -0.000018881995
 32       0.467184826813
 33       0.608419817049
 34       0.038252022752
 35      -0.023382841281
 36       0.017953126885
 37      -0.000255146241
 38       0.000411908963
 39       0.000926651313
 40      -0.003697701168
 41       0.006161579020
 42       0.012950514918
 43       0.001576635517
 44      -0.002598522213
 45      -0.005488612737
 46       0.001396623078
 47      -0.000655837026
 48       0.000851377676
 49      -0.000693367231
 50      -0.000835428941
 51       0.003663036939
 52      -0.002868357086
 53       0.005964748009
 54       0.002014367845
 55       0.001326686960
 56       0.000704856069
 57      -0.000766947651
 58       0.001227308320
 59      -0.000371960520
 60      -0.000671218573
 61      -0.000219228431
 62       0.000005157537
 63       0.000578079435
 64       0.000859921369
 65      -0.000896272117
 66       0.008328561253
 67      -0.007708054429
 68       0.000039852493
 69      -0.000091409929
 70      -0.000023462863
 71       0.000164556140
 72      -0.001378954743
 73       0.004597328063
 74      -0.000800555889
 75       0.001489677188
 76      -0.002128845033
 77      -0.000104082521
 78      -0.000018619521
 79       0.000055688148
 80       0.000000044415
 81      -0.000018740579
 82       0.001017542799
 83      -0.000110814128
 84       0.000106896826
 85       0.000306531080
 86       0.000342464319
 87      -0.000114060335
 88      -0.000222383466
 89       0.000706960503
 90       0.000208737581
 91       0.000113707150
 92      -0.000122758173
 93       0.000132869116
 94       0.000587353231
 95       0.000871462609
 96      -0.000909080975
 97       0.008434367916
 98      -0.007759789729
 99      -0.000006491481
100       0.000034587215
101      -0.000095764488
102      -0.001887072473
103       0.004265041916
104       0.001398014436
105       0.001267285441
106      -0.002393692535
107       0.000243011429
108       0.000060252960
109       0.000031667589
110      -0.000055538210
111       0.000050044482
112       0.000061455556
113      -0.000237941282
114      -0.000441013406
115       0.000977816580
116      -0.000118559978
117      -0.000265225619
118       0.000125779091
119      -0.000297529627
120       0.000470575503
121      -0.000040883072
122      -0.000056259323
123       0.000516926954
124      -0.000228719923
125       0.000005708448
126      -0.000239487599
127       0.000416713801
128      -0.000026832888
129       0.000059335981
130      -0.000358258692
131       0.000023155747
132      -0.000462857049
133       0.000122115239
134      -0.000093635762
135       0.000096771851
136      -0.000208178430
137      -0.000035194945
138      -0.000501603578
139      -0.000387581186
140       0.000014728103
141       0.000136076787
142      -0.000210666487
143       0.000006152334
144      -0.000233068732
145       0.000430797174
146       0.000163423796
147      -0.000295519569
148      -0.000140035919
149      -0.000030439769
150      -0.000504929645
151      -0.000341275173
152       0.000051010167
153      -0.000247828714
154      -0.000022047128
155       0.000018495830
156      -0.000474616815
157       0.000075340158
158       0.000153215744
159      -0.000198018629
160      -0.000003728946
 Sym=     1a
 Ene= -1.02138125986177E+01
 Spin= Alpha
 Occup= 2.000000
  1       0.000004689613
  2      -0.000054740667
  3       0.000623259292
  4      -0.002616850718
  5       0.000729030051
  6       0.000057495899
  7      -0.000151924587
  8      -0.000005118174
  9      -0.000479319123
 10       0.001152295783
 11       0.000274137882
 12       0.000024473798
 13      -0.000286157874
 14       0.000558331319
 15      -0.000027263919
 16      -0.000013423998
 17       0.000040474918
 18       0.000000416499
 19      -0.000008480355
 20       0.000221612954
 21       0.000076166529
 22      -0.000225614185
 23       0.000080243015
 24       0.000123959926
 25       0.000005277648
 26       0.000024972563
 27      -0.000069126144
 28      -0.000017049741
 29      -0.000004669134
 30       0.000006126518
 31      -0.000007421912
 32      -0.000655830151
 33      -0.000762654920
 34      -0.000019119881
 35       0.002820089448
 36      -0.009394465142
 37       0.000201676948
 38      -0.000493063796
 39       0.000134663810
 40      -0.001726828600
 41       0.004351436046
 42      -0.001177068988
 43      -0.002125522278
 44       0.005352909153
 45      -0.002735038663
 46      -0.000029123078
 47       0.000028169288
 48      -0.000022010399
 49       0.000112091084
 50       0.000117815885
 51       0.003874361932
 52      -0.000167065027
 53      -0.000608957843
 54       0.001493698901
 55       0.001573095855
 56      -0.000029902321
 57       0.000179162932
 58      -0.000387138344
 59      -0.000017063364
 60      -0.000066319932
 61      -0.000778606391
 62       0.000313355352
 63      -0.001470798571
 64      -0.001908834722
 65       0.000399598039
 66      -0.003651035157
 67      -0.004037833915
 68       0.000050949207
 69      -0.000102587199
 70       0.000036813447
 71      -0.000851252306
 72       0.002648583349
 73      -0.002069432176
 74      -0.000379091015
 75       0.002308460346
 76      -0.000592798378
 77      -0.000043776739
 78       0.000002693566
 79       0.000021246708
 80       0.000048290163
 81       0.000024573525
 82      -0.000110476913
 83      -0.000575503733
 84       0.001306794362
 85       0.000027734994
 86       0.000040908618
 87       0.000031225533
 88      -0.000033545592
 89       0.000059127552
 90       0.000081755006
 91       0.000098106860
 92      -0.000037575766
 93       0.000034457100
 94       0.467077675769
 95       0.608672624152
 96       0.034442411305
 97      -0.014132590517
 98       0.032572003719
 99      -0.000116989497
100       0.000381225315
101      -0.000101728297
102      -0.000186786918
103       0.000564177739
104       0.000157795918
105      -0.000913903305
106       0.003453885060
107      -0.000873358731
108       0.000063976274
109      -0.000023964869
110       0.000004597834
111      -0.000054032226
112      -0.000037778410
113      -0.000319507882
114      -0.000027182599
115       0.000350446159
116       0.000274642717
117       0.000201604281
118       0.000684219586
119      -0.000310876772
120      -0.001027502798
121      -0.000638277214
122      -0.000587132393
123      -0.000788837288
124       0.000065490379
125      -0.000069870983
126      -0.000837394228
127      -0.001030573936
128      -0.000050474928
129       0.000160262643
130      -0.000062346580
131       0.000025550344
132       0.000220216375
133       0.000166191857
134       0.000034403441
135       0.000057738166
136       0.000080294055
137       0.000032955512
138       0.000424470469
139       0.000785500366
140       0.000000429979
141       0.000011637726
142       0.000091244978
143      -0.000454761104
144      -0.001828023384
145      -0.003766228773
146      -0.000020556038
147      -0.000783220759
148       0.001724785601
149      -0.000434248171
150      -0.002751830726
151      -0.005334965928
152       0.001864507218
153       0.000029068138
154      -0.000699513067
155      -0.000435744863
156      -0.002636941548
157      -0.004973623160
158      -0.000944442191
159      -0.001144333810
160      -0.001319350736
 Sym=     1a
 Ene= -1.02122349128751E+01
 Spin= Alpha
 Occup= 2.000000
  1      -0.000004697692
  2       0.000054716142
  3      -0.000623669530
  4       0.002621353888
  5      -0.000703269480
  6       0.000014602324
  7      -0.000084057528
  8       0.000137674009
  9      -0.000051533469
 10       0.000458380231
 11      -0.001190210510
 12       0.000183926047
 13      -0.000584373763
 14      -0.000101118480
 15      -0.000039299072
 16      -0.000002848688
 17       0.000006507335
 18      -0.000023532785
 19      -0.000022596488
 20       0.000289457801
 21       0.000041226323
 22      -0.000140135347
 23       0.000100277090
 24       0.000113428425
 25       0.000011699817
 26      -0.000029692643
 27       0.000053016768
 28      -0.000002620729
 29      -0.000006454512
 30       0.000040661703
 31      -0.000018398062
 32       0.000650751303
 33       0.000755639478
 34       0.000014227640
 35      -0.002824372120
 36       0.009401465153
 37       0.000131945575
 38      -0.000377016736
 39       0.000370434576
 40      -0.001104874968
 41       0.003317423756
 42      -0.003253809556
 43      -0.001906212753
 44       0.005009030395
 45      -0.003275267387
 46       0.000120630382
 47      -0.000008323634
 48      -0.000044147715
 49      -0.000081524624
 50      -0.000073524134
 51       0.001862546318
 52       0.001330370939
 53      -0.003631930337
 54       0.000640362528
 55       0.001032905606
 56      -0.000324901391
 57      -0.000147718783
 58       0.000688180260
 59       0.000415873297
 60       0.000283326083
 61      -0.000147666391
 62       0.000136204130
 63      -0.467078919736
 64      -0.608676073750
 65      -0.034432590201
 66       0.014163239797
 67      -0.032426240319
 68      -0.000047464236
 69       0.000319399134
 70      -0.000273968260
 71       0.000032578342
 72       0.000183967101
 73      -0.000562978558
 74      -0.000398950394
 75       0.002699276570
 76      -0.002407248401
 77      -0.000046496481
 78       0.000029462293
 79      -0.000016924389
 80       0.000062470645
 81       0.000046187356
 82      -0.000071904091
 83      -0.000018203815
 84      -0.000044159527
 85      -0.000434017017
 86      -0.000365697103
 87      -0.000524396262
 88      -0.000228435614
 89       0.000694560903
 90       0.000908113575
 91       0.000551258650
 92       0.000779020386
 93      -0.000665921617
 94      -0.001470401678
 95      -0.001923978858
 96      -0.000610085082
 97       0.003707983281
 98       0.003787944427
 99       0.000043612471
100      -0.000083513099
101       0.000078070031
102      -0.001138108134
103       0.003026260715
104      -0.001194148228
105      -0.000150380700
106       0.001825083370
107      -0.001523898378
108       0.000012104742
109      -0.000019894696
110      -0.000003836193
111      -0.000055111669
112      -0.000040597130
113      -0.001086855876
114       0.000358357397
115      -0.000403025830
116      -0.000478672920
117      -0.000579219064
118       0.000066660982
119       0.000028256019
120      -0.000027026384
121       0.000057972942
122       0.000039778573
123      -0.000105116152
124       0.000026211753
125       0.000456276451
126       0.001842726970
127       0.003769028823
128       0.000540992580
129      -0.001777967990
130      -0.000367929374
131       0.000434845055
132       0.002604910535
133       0.004930529940
134      -0.001613000431
135       0.000037143056
136       0.001142423532
137       0.000432649018
138       0.002733994585
139       0.005339631578
140       0.001367712255
141       0.000884444709
142       0.001140057179
143       0.000073734327
144       0.000863421944
145       0.001053050486
146      -0.000043297563
147       0.000144862931
148      -0.000118743418
149      -0.000028471076
150      -0.000376066589
151      -0.000749745734
152       0.000021572866
153      -0.000057064728
154      -0.000056044344
155      -0.000026843764
156      -0.000243561125
157      -0.000125003830
158       0.000077848696
159      -0.000012452843
160      -0.000066434687
 Sym=     1a
 Ene= -1.08336994217728E+00
 Spin= Alpha
 Occup= 2.000000
  1      -0.088879357052
  2      -0.209429956234
  3       0.300883143168
  4       0.394970741486
  5       0.124021370966
  6       0.030177913762
  7      -0.048367000729
  8      -0.101907462979
  9       0.023542781438
 10      -0.037398076797
 11      -0.078175049355
 12       0.003574045739
 13      -0.002613404123
 14      -0.005971581634
 15       0.004316651115
 16      -0.002590933250
 17       0.004519178792
 18      -0.000189762397
 19      -0.000917468742
 20       0.009163056232
 21      -0.006145676348
 22       0.010658089544
 23      -0.000184763409
 24      -0.000642747539
 25      -0.001021304757
 26       0.001246703494
 27      -0.002326264281
 28       0.000353244667
 29       0.000989714503
 30       0.000041247534
 31       0.000067376163
 32      -0.057125464723
 33      -0.120328817119
 34       0.186536217064
 35       0.146805764861
 36       0.020516043071
 37      -0.033282162105
 38       0.055648483664
 39       0.118838227112
 40      -0.008855272091
 41       0.014921538371
 42       0.033409408210
 43       0.001723403623
 44      -0.002958614760
 45       0.003195275893
 46       0.013131401229
 47      -0.007344282792
 48       0.011900292453
 49      -0.002589555153
 50      -0.004197244471
 51       0.004754617234
 52      -0.001329433791
 53       0.000790955819
 54      -0.004804897199
 55      -0.005208184428
 56       0.001873454925
 57      -0.003681594663
 58       0.007559171425
 59      -0.000284845736
 60      -0.001664545565
 61       0.000813130343
 62      -0.000536769962
 63      -0.008258123782
 64      -0.017099266214
 65       0.025741748858
 66       0.014898721977
 67      -0.004155978447
 68       0.000264081076
 69      -0.004022006766
 70       0.015906455314
 71      -0.000713454785
 72       0.001360438694
 73       0.004605838106
 74       0.000033406459
 75      -0.000314308301
 76      -0.000151449688
 77       0.001315164166
 78      -0.000092069345
 79      -0.000191337716
 80       0.000023788501
 81       0.000079953340
 82       0.001061329565
 83      -0.000656340197
 84       0.001181651795
 85       0.000376699716
 86       0.000094635876
 87       0.000898317233
 88      -0.000310607645
 89       0.000314636798
 90      -0.000089216252
 91      -0.000034577135
 92       0.000037733435
 93       0.000043893267
 94      -0.008364727574
 95      -0.017330067634
 96       0.026301680903
 97       0.014282104418
 98      -0.012933484665
 99      -0.006415152474
100       0.014281833291
101       0.005663510865
102      -0.000853956802
103       0.001982861636
104       0.003698594019
105      -0.000027138409
106      -0.002905935629
107      -0.001079737454
108      -0.000207856034
109      -0.000466756588
110       0.000970879642
111      -0.000551370125
112      -0.000625694214
113       0.000833527240
114      -0.000700860347
115       0.000958039304
116       0.000576904116
117       0.000109926504
118      -0.000208946040
119      -0.000370070438
120       0.000517847255
121      -0.000377691360
122      -0.000518293053
123      -0.000321038399
124       0.000054706946
125       0.004945049477
126       0.004641925797
127       0.002099176661
128       0.000278187076
129      -0.001078790056
130       0.000374890305
131       0.002665408608
132       0.002819842766
133       0.000934337705
134      -0.000303019751
135      -0.000121284628
136       0.000711060880
137       0.002998092538
138       0.003563922120
139       0.001013514108
140       0.000368124396
141      -0.000000655208
142       0.000928067969
143       0.005057602781
144       0.004620940974
145       0.002393333764
146      -0.000180857330
147       0.000948209447
148      -0.000695995531
149       0.002966782236
150       0.003434366029
151       0.002211910561
152      -0.000652308122
153       0.000608040983
154       0.000322152012
155       0.002749425584
156       0.003503689968
157       0.000521635582
158       0.000041216662
159       0.000713386488
160       0.000491879641
 Sym=     1a
 Ene= -7.87821733414234E-01
 Spin= Alpha
 Occup= 2.000000
  1       0.030388453061
  2       0.072337920964
  3      -0.109781640279
  4      -0.140106450709
  5      -0.071454109594
  6       0.001136126362
  7      -0.003029801357
  8      -0.005619970308
  9       0.001398921433
 10      -0.003207307256
 11      -0.006585557779
 12      -0.000057084819
 13      -0.003495235724
 14      -0.007310205021
 15      -0.000263961778
 16       0.000177872756
 17      -0.000442060311
 18      -0.000247726842
 19      -0.000145347879
 20       0.000337870701
 21       0.000099391009
 22      -0.000367160825
 23      -0.000463788885
 24      -0.000915316862
 25      -0.000025429839
 26      -0.000019940670
 27       0.000170670037
 28       0.000133002186
 29       0.000036689382
 30       0.000136286539
 31      -0.000047550840
 32      -0.044838181414
 33      -0.095871643785
 34       0.152691475006
 35       0.149118135753
 36       0.033053824782
 37       0.033230127855
 38      -0.055780140892
 39      -0.114468871106
 40       0.020025180508
 41      -0.032783757060
 42      -0.068774645245
 43       0.006584193137
 44      -0.004791693778
 45      -0.012301030479
 46      -0.002811365817
 47       0.002815592459
 48      -0.006695558921
 49      -0.003792333571
 50      -0.003085198187
 51      -0.002505250310
 52       0.002942881504
 53      -0.006790711047
 54      -0.003444806540
 55      -0.002608093232
 56      -0.001105365559
 57      -0.000139133369
 58       0.001331727574
 59       0.001154533569
 60       0.001185525107
 61       0.001409688662
 62      -0.000397156077
 63      -0.057804209500
 64      -0.122991176397
 65       0.183600641591
 66       0.216854671168
 67       0.013058210589
 68       0.009395659232
 69      -0.030332135191
 70       0.023245325563
 71       0.008642034722
 72      -0.027302530477
 73       0.021040022285
 74       0.000638979893
 75      -0.004389701866
 76      -0.001010820828
 77       0.000977521332
 78       0.000974002368
 79      -0.003030552947
 80      -0.001104077424
 81      -0.000863190094
 82       0.001403840033
 83       0.002739142507
 84      -0.007669388224
 85      -0.002437451892
 86      -0.001248371052
 87       0.000509332156
 88       0.000962747333
 89      -0.002823704461
 90      -0.002776639185
 91      -0.001817800176
 92      -0.001056455304
 93       0.000884267605
 94      -0.059710787225
 95      -0.127039656335
 96       0.189140382139
 97       0.226595486537
 98       0.014026807202
 99      -0.012546603530
100       0.034757095605
101      -0.013197368461
102      -0.011311413931
103       0.033142549709
104      -0.012304778440
105      -0.003918905269
106      -0.000335810624
107       0.000183480725
108      -0.001678942727
109       0.000420907445
110      -0.000915423221
111      -0.002134117223
112      -0.002068002353
113      -0.005647780948
114       0.001619644580
115      -0.003159002707
116      -0.005147648815
117      -0.004366777434
118       0.001816784253
119      -0.000065590489
120      -0.003237879386