[Molden Format]
[Title]
 Molden file created by orca_2mkl for BaseName=temp

[Atoms] AU
O    1   8          0.6573034412        18.6112305019         4.7226504861 
C    2   6          1.2243970259        17.6725298318         2.7255047598 
C    3   6          0.8571495387        19.0520960500         0.2623412305 
C    4   6          2.3344334953        15.0560339241         2.5590784689 
H    5   1          0.2758811183        20.9923477916         0.6178988718 
H    6   1          2.5898432104        19.0221779058        -0.8636804322 
H    7   1         -0.5978999001        18.0955866009        -0.8545625037 
H    8   1          2.3258428003        14.1660239376         4.4127807535 
H    9   1          4.2765749630        15.1680039769         1.8587610815 
H   10   1          1.2799493050        13.9005193055         1.2088634770 
[GTO]
  1 0
s   6 1.0 
    27032.3800000000         0.8598581393
     4052.3870000000         1.6055304059
      922.3272000000         2.7458780898
      261.2407000000         4.2987677378
       85.3546400000         5.8797670930
       31.0350400000         6.3163984679
s   2 1.0 
       12.2608600000         2.9812145398
        4.9987080000         0.9419560379
s   1 1.0 
        1.1703110000         0.8019292557
s   1 1.0 
        0.4647474000         0.4011647998
s   1 1.0 
        0.1850454000         0.2010799703
p   4 1.0 
       63.2749500000         3.0572013698
       14.6270500000         3.3844845670
        4.4501220000         2.9474258212
        1.5275800000         1.7118271901
p   1 1.0 
        0.5293512000         0.6436058239
p   1 1.0 
        0.1747842000         0.1610897108
d   1 1.0 
        2.3140000000        12.3767310624
d   1 1.0 
        0.6450000000         1.3234257612
f   1 1.0 
        1.4280000000        12.7097950062

  2 0
s   6 1.0 
    13575.3500000000         0.5435905009
     2035.2330000000         1.0145543008
      463.2256000000         1.7315731015
      131.2002000000         2.6910371555
       42.8530200000         3.6044547316
       15.5841900000         3.7025565440
s   2 1.0 
        6.2067140000         1.8383540114
        2.5764900000         0.5447576606
s   1 1.0 
        0.5769634000         0.4718145074
s   1 1.0 
        0.2297283000         0.2364944571
s   1 1.0 
        0.0951644400         0.1221141848
p   4 1.0 
       34.6972300000         1.3596652360
        7.9582620000         1.4512590746
        2.3780830000         1.2709231872
        0.8143321000         0.8025721831
p   1 1.0 
        0.2888755000         0.3018759228
p   1 1.0 
        0.1005682000         0.0807264648
d   1 1.0 
        1.0970000000         3.3522135855
d   1 1.0 
        0.3180000000         0.3838994974
f   1 1.0 
        0.7610000000         3.0840084332

  3 0
s   6 1.0 
    13575.3500000000         0.5435905009
     2035.2330000000         1.0145543008
      463.2256000000         1.7315731015
      131.2002000000         2.6910371555
       42.8530200000         3.6044547316
       15.5841900000         3.7025565440
s   2 1.0 
        6.2067140000         1.8383540114
        2.5764900000         0.5447576606
s   1 1.0 
        0.5769634000         0.4718145074
s   1 1.0 
        0.2297283000         0.2364944571
s   1 1.0 
        0.0951644400         0.1221141848
p   4 1.0 
       34.6972300000         1.3596652360
        7.9582620000         1.4512590746
        2.3780830000         1.2709231872
        0.8143321000         0.8025721831
p   1 1.0 
        0.2888755000         0.3018759228
p   1 1.0 
        0.1005682000         0.0807264648
d   1 1.0 
        1.0970000000         3.3522135855
d   1 1.0 
        0.3180000000         0.3838994974
f   1 1.0 
        0.7610000000         3.0840084332

  4 0
s   6 1.0 
    13575.3500000000         0.5435905009
     2035.2330000000         1.0145543008
      463.2256000000         1.7315731015
      131.2002000000         2.6910371555
       42.8530200000         3.6044547316
       15.5841900000         3.7025565440
s   2 1.0 
        6.2067140000         1.8383540114
        2.5764900000         0.5447576606
s   1 1.0 
        0.5769634000         0.4718145074
s   1 1.0 
        0.2297283000         0.2364944571
s   1 1.0 
        0.0951644400         0.1221141848
p   4 1.0 
       34.6972300000         1.3596652360
        7.9582620000         1.4512590746
        2.3780830000         1.2709231872
        0.8143321000         0.8025721831
p   1 1.0 
        0.2888755000         0.3018759228
p   1 1.0 
        0.1005682000         0.0807264648
d   1 1.0 
        1.0970000000         3.3522135855
d   1 1.0 
        0.3180000000         0.3838994974
f   1 1.0 
        0.7610000000         3.0840084332

  5 0
s   3 1.0 
       34.0613400000         0.2556298765
        5.1235750000         0.4613598729
        1.1646630000         0.6811216893
s   1 1.0 
        0.3272304000         0.3083545241
s   1 1.0 
        0.1030724000         0.1296483171
p   1 1.0 
        0.8000000000         1.0784563492

  6 0
s   3 1.0 
       34.0613400000         0.2556298765
        5.1235750000         0.4613598729
        1.1646630000         0.6811216893
s   1 1.0 
        0.3272304000         0.3083545241
s   1 1.0 
        0.1030724000         0.1296483171
p   1 1.0 
        0.8000000000         1.0784563492

  7 0
s   3 1.0 
       34.0613400000         0.2556298765
        5.1235750000         0.4613598729
        1.1646630000         0.6811216893
s   1 1.0 
        0.3272304000         0.3083545241
s   1 1.0 
        0.1030724000         0.1296483171
p   1 1.0 
        0.8000000000         1.0784563492

  8 0
s   3 1.0 
       34.0613400000         0.2556298765
        5.1235750000         0.4613598729
        1.1646630000         0.6811216893
s   1 1.0 
        0.3272304000         0.3083545241
s   1 1.0 
        0.1030724000         0.1296483171
p   1 1.0 
        0.8000000000         1.0784563492

  9 0
s   3 1.0 
       34.0613400000         0.2556298765
        5.1235750000         0.4613598729
        1.1646630000         0.6811216893
s   1 1.0 
        0.3272304000         0.3083545241
s   1 1.0 
        0.1030724000         0.1296483171
p   1 1.0 
        0.8000000000         1.0784563492

 10 0
s   3 1.0 
       34.0613400000         0.2556298765
        5.1235750000         0.4613598729
        1.1646630000         0.6811216893
s   1 1.0 
        0.3272304000         0.3083545241
s   1 1.0 
        0.1030724000         0.1296483171
p   1 1.0 
        0.8000000000         1.0784563492

[5D]
[7F]
[9G]
[MO]
 Sym=     1a
 Ene= -1.91997342496808E+01
 Spin= Alpha
 Occup= 2.000000
  1      -0.435383180361
  2      -0.639605655234
  3      -0.034925265834
  4       0.028849439707
  5      -0.010116224082
  6      -0.000559374991
  7       0.000884678874
  8       0.001837968694
  9       0.001592342931
 10      -0.002611722062
 11      -0.005509777306
 12      -0.000135575500
 13       0.000218490262
 14       0.000433335828
 15      -0.000194365301
 16       0.000125289307
 17      -0.000225756790
 18      -0.000009125783
 19       0.000016907278
 20       0.000961448869
 21      -0.000589250392
 22       0.001005372721
 23      -0.000063223237
 24      -0.000190859824
 25      -0.000068452266
 26       0.000080317241
 27      -0.000124693066
 28       0.000037611797
 29       0.000066349837
 30       0.000020459845
 31      -0.000001171841
 32      -0.000043157947
 33       0.000258818650
 34      -0.000762339107
 35      -0.004336541246
 36       0.001412117109
 37       0.000163090996
 38      -0.000267742022
 39      -0.000572480918
 40       0.002119240888
 41      -0.003526075472
 42      -0.007484550090
 43      -0.001257284990
 44       0.002061003825
 45       0.004491916667
 46      -0.000250013028
 47       0.000127904624
 48      -0.000213332908
 49       0.000055635937
 50       0.000103466436
 51      -0.002926320677
 52       0.001877788630
 53      -0.003318423821
 54      -0.000098498830
 55       0.000243410640
 56      -0.000099473670
 57      -0.000015807008
 58       0.000125451989
 59       0.000103107124
 60       0.000103553215
 61       0.000128188421
 62      -0.000033723860
 63      -0.000017487858
 64       0.000084122582
 65      -0.000350284115
 66      -0.001162230646
 67       0.001923278601
 68      -0.000025805122
 69       0.000020380939
 70      -0.000193347398
 71       0.000048769348
 72       0.000878246237
 73      -0.000491521511
 74       0.000378720144
 75      -0.000789896085
 76      -0.000060982923
 77      -0.000083486907
 78       0.000005025524
 79       0.000030089958
 80       0.000043488958
 81       0.000051627818
 82      -0.000450305944
 83      -0.000209219585
 84       0.000309412042
 85      -0.000837760899
 86      -0.000820456395
 87      -0.000061664126
 88      -0.000053446029
 89       0.000086963276
 90      -0.000046989513
 91      -0.000041016360
 92       0.000063913127
 93      -0.000039854463
 94      -0.000017707837
 95       0.000085179924
 96      -0.000353099030
 97      -0.001182368450
 98       0.001803654001
 99       0.000098841387
100      -0.000150201050
101      -0.000081495417
102       0.000040822041
103      -0.000942497927
104       0.000388932711
105      -0.000122617370
106       0.000374959344
107      -0.000755182201
108      -0.000016161010
109       0.000016164530
110      -0.000022742394
111       0.000071050943
112       0.000080540644
113       0.001020542471
114       0.000111158286
115      -0.000754208267
116      -0.000305422813
117      -0.000151476870
118       0.000063472962
119      -0.000042050929
120       0.000098198303
121       0.000069248879
122       0.000055358090
123      -0.000001566746
124       0.000029507267
125      -0.000127901924
126      -0.001061228633
127       0.000163376481
128      -0.000027435762
129       0.000203653946
130      -0.000034339787
131       0.000000544642
132       0.000495486077
133      -0.000362467020
134      -0.000032558634
135       0.000100621715
136       0.000158476519
137       0.000060393902
138       0.000884831618
139      -0.000414691648
140       0.000050673465
141       0.000087656699
142       0.000187415659
143      -0.000130258584
144      -0.001079240209
145       0.000167112440
146       0.000005405600
147      -0.000153967507
148       0.000145327007
149       0.000055525582
150       0.000873421644
151      -0.000403010804
152      -0.000137510087
153       0.000069949900
154       0.000149674309
155       0.000004735015
156       0.000548649414
157      -0.000354656760
158      -0.000054390346
159       0.000065099549
160       0.000176346104
 Sym=     1a
 Ene= -1.03164999758962E+01
 Spin= Alpha
 Occup= 2.000000
  1       0.000084761569
  2       0.000357000858
  3      -0.003631377635
  4       0.014920919872
  5      -0.000091301676
  6      -0.000170645313
  7       0.000282339037
  8       0.000599823640
  9       0.002162171077
 10      -0.003577755040
 11      -0.007603769402
 12       0.000043607948
 13      -0.000077249549
 14      -0.000158404133
 15       0.000010973956
 16       0.000019953192
 17      -0.000080856079
 18      -0.000094617968
 19      -0.000085035570
 20       0.001955598974
 21      -0.001240799182
 22       0.002245046478
 23       0.000095149912
 24      -0.000198997470
 25      -0.000179453020
 26       0.000266949785
 27      -0.000490290062
 28       0.000064308752
 29       0.000164653794
 30      -0.000004005835
 31       0.000018882255
 32      -0.467184826611
 33      -0.608419815456
 34      -0.038252009487
 35       0.023382698292
 36      -0.017953116921
 37       0.000255141303
 38      -0.000411936593
 39      -0.000926689426
 40       0.003697705299
 41      -0.006161549783
 42      -0.012950487811
 43      -0.001576637377
 44       0.002598514919
 45       0.005488604426
 46      -0.001396630377
 47       0.000655841548
 48      -0.000851384402
 49       0.000693368500
 50       0.000835431008
 51      -0.003663043402
 52       0.002868355267
 53      -0.005964746649
 54      -0.002014351192
 55      -0.001326671899
 56      -0.000704856733
 57       0.000766951211
 58      -0.001227315527
 59       0.000371960553
 60       0.000671218470
 61       0.000219226526
 62      -0.000005156361
 63      -0.000578059049
 64      -0.000859894804
 65       0.000896263370
 66      -0.008328509283
 67       0.007708043362
 68      -0.000039851839
 69       0.000091411315
 70       0.000023461744
 71      -0.000164556598
 72       0.001378935106
 73      -0.004597300105
 74       0.000800556204
 75      -0.001489675486
 76       0.002128845704
 77       0.000104083524
 78       0.000018619983
 79      -0.000055688958
 80      -0.000000044421
 81       0.000018740445
 82      -0.001017536984
 83       0.000110815791
 84      -0.000106905340
 85      -0.000306535832
 86      -0.000342464039
 87       0.000114060923
 88       0.000222383496
 89      -0.000706961057
 90      -0.000208738235
 91      -0.000113707674
 92       0.000122757916
 93      -0.000132868864
 94      -0.000587341582
 95      -0.000871447345
 96       0.000909069227
 97      -0.008434302334
 98       0.007759772294
 99       0.000006493583
100      -0.000034589432
101       0.000095764832
102       0.001887051319
103      -0.004265005898
104      -0.001398015663
105      -0.001267283320
106       0.002393691597
107      -0.000243009207
108      -0.000060253739
109      -0.000031667724
110       0.000055538640
111      -0.000050045472
112      -0.000061456380
113       0.000237935446
114       0.000441015484
115      -0.000977815416
116       0.000118552562
117       0.000265215628
118      -0.000125778770
119       0.000297529471
120      -0.000470576083
121       0.000040882715
122       0.000056258730
123      -0.000516927780
124       0.000228720035
125      -0.000005708483
126       0.000239486532
127      -0.000416712224
128       0.000026832745
129      -0.000059335788
130       0.000358258582
131      -0.000023155301
132       0.000462858848
133      -0.000122113861
134       0.000093635531
135      -0.000096771588
136       0.000208178307
137       0.000035194551
138       0.000501599433
139       0.000387583185
140      -0.000014729074
141      -0.000136076167
142       0.000210664447
143      -0.000006152189
144       0.000233068292
145      -0.000430795723
146      -0.000163423724
147       0.000295518905
148       0.000140035810
149       0.000030440422
150       0.000504931034
151       0.000341277127
152      -0.000051010109
153       0.000247828087
154       0.000022047126
155      -0.000018496131
156       0.000474611423
157      -0.000075335873
158      -0.000153215536
159       0.000198016139
160       0.000003728209
 Sym=     1a
 Ene= -1.02138103530781E+01
 Spin= Alpha
 Occup= 2.000000
  1       0.000004689720
  2      -0.000054740370
  3       0.000623258810
  4      -0.002616853897
  5       0.000729034556
  6       0.000057495076
  7      -0.000151922235
  8      -0.000005118524
  9      -0.000479317886
 10       0.001152292985
 11       0.000274140621
 12       0.000024473910
 13      -0.000286156650
 14       0.000558330289
 15      -0.000027263690
 16      -0.000013423914
 17       0.000040474859
 18       0.000000416743
 19      -0.000008480157
 20       0.000221610988
 21       0.000076166033
 22      -0.000225613313
 23       0.000080241575
 24       0.000123958590
 25       0.000005277709
 26       0.000024972543
 27      -0.000069125989
 28      -0.000017049514
 29      -0.000004669012
 30       0.000006126472
 31      -0.000007421855
 32      -0.000655821544
 33      -0.000762644052
 34      -0.000019104714
 35       0.002820024386
 36      -0.009394490522
 37       0.000201677884
 38      -0.000493066553
 39       0.000134661982
 40      -0.001726835624
 41       0.004351452601
 42      -0.001177049470
 43      -0.002125518776
 44       0.005352897339
 45      -0.002735028233
 46      -0.000029122806
 47       0.000028169334
 48      -0.000022010149
 49       0.000112091733
 50       0.000117816660
 51       0.003874352782
 52      -0.000167068931
 53      -0.000608945445
 54       0.001493705472
 55       0.001573098808
 56      -0.000029901413
 57       0.000179163307
 58      -0.000387140404
 59      -0.000017064949
 60      -0.000066320945
 61      -0.000778605277
 62       0.000313354866
 63      -0.001469308624
 64      -0.001906892715
 65       0.000399703374
 66      -0.003651063348
 67      -0.004037741467
 68       0.000050949058
 69      -0.000102586939
 70       0.000036813011
 71      -0.000851250250
 72       0.002648573936
 73      -0.002069421852
 74      -0.000379089019
 75       0.002308451573
 76      -0.000592791861
 77      -0.000043776598
 78       0.000002693494
 79       0.000021246635
 80       0.000048289765
 81       0.000024573210
 82      -0.000110475370
 83      -0.000575501793
 84       0.001306790136
 85       0.000027734881
 86       0.000040909160
 87       0.000031227026
 88      -0.000033544863
 89       0.000059125272
 90       0.000081751550
 91       0.000098104610
 92      -0.000037577979
 93       0.000034458936
 94       0.467077685157
 95       0.608672629791
 96       0.034442377058
 97      -0.014132527434
 98       0.032571978984
 99      -0.000116973505
100       0.000381209986
101      -0.000101727802
102      -0.000186815458
103       0.000564216374
104       0.000157800798
105      -0.000913900403
106       0.003453880943
107      -0.000873350016
108       0.000063976150
109      -0.000023964934
110       0.000004597860
111      -0.000054031177
112      -0.000037777513
113      -0.000319513249
114      -0.000027183502
115       0.000350448850
116       0.000274631858
117       0.000201592160
118       0.000684218627
119      -0.000310875882
120      -0.001027503417
121      -0.000638276977
122      -0.000587132309
123      -0.000788839105
124       0.000065491117
125      -0.000069872121
126      -0.000837397374
127      -0.001030584114
128      -0.000050476564
129       0.000160267793
130      -0.000062345517
131       0.000025548739
132       0.000220209311
133       0.000166178115
134       0.000034408302
135       0.000057737900
136       0.000080290409
137       0.000032953676
138       0.000424461958
139       0.000785485643
140       0.000000425652
141       0.000011634860
142       0.000091241237
143      -0.000454759251
144      -0.001828021671
145      -0.003766231846
146      -0.000020555650
147      -0.000783221220
148       0.001724784537
149      -0.000434247177
150      -0.002751823560
151      -0.005334963515
152       0.001864506661
153       0.000029068051
154      -0.000699512502
155      -0.000435742751
156      -0.002636937184
157      -0.004973615837
158      -0.000944441021
159      -0.001144333182
160      -0.001319348911
 Sym=     1a
 Ene= -1.02122310690614E+01
 Spin= Alpha
 Occup= 2.000000
  1       0.000004697784
  2      -0.000054715513
  3       0.000623665407
  4      -0.002621340840
  5       0.000703270683
  6      -0.000014601832
  7       0.000084056870
  8      -0.000137671829
  9       0.000051535991
 10      -0.000458384003
 11       0.001190208205
 12      -0.000183924996
 13       0.000584373258
 14       0.000101114737
 15       0.000039298959
 16       0.000002848694
 17      -0.000006507366
 18       0.000023532775
 19       0.000022596620
 20      -0.000289457351
 21      -0.000041226234
 22       0.000140134934
 23      -0.000100277272
 24      -0.000113429163
 25      -0.000011699907
 26       0.000029692360
 27      -0.000053016199
 28       0.000002620767
 29       0.000006454497
 30      -0.000040661510
 31       0.000018398023
 32      -0.000650729671
 33      -0.000755612404
 34      -0.000014210626
 35       0.002824284557
 36      -0.009401432229
 37      -0.000131947698
 38       0.000377019979
 39      -0.000370439830
 40       0.001104882429
 41      -0.003317444286
 42       0.003253844058
 43       0.001906217116
 44      -0.005009045909
 45       0.003275279417
 46      -0.000120630310
 47       0.000008323553
 48       0.000044148872
 49       0.000081524479
 50       0.000073523772
 51      -0.001862565825
 52      -0.001330371333
 53       0.003631933096
 54      -0.000640361444
 55      -0.001032904239
 56       0.000324901182
 57       0.000147718152
 58      -0.000688178215
 59      -0.000415872736
 60      -0.000283325584
 61       0.000147668427
 62      -0.000136204764
 63       0.467078931521
 64       0.608676078453
 65       0.034432541241
 66      -0.014163138155
 67       0.032426223116
 68       0.000047472111
 69      -0.000319376367
 70       0.000273954638
 71      -0.000032578893
 72      -0.000184019065
 73       0.000563031628
 74       0.000398955193
 75      -0.002699274520
 76       0.002407253480
 77       0.000046496081
 78      -0.000029462434
 79       0.000016925246
 80      -0.000062470246
 81      -0.000046188085
 82       0.000071916891
 83       0.000018210290
 84       0.000044138424
 85       0.000434011308
 86       0.000365695787
 87       0.000524396517
 88       0.000228435992
 89      -0.000694563015
 90      -0.000908114332
 91      -0.000551259078
 92      -0.000779018820
 93       0.000665920136
 94       0.001468912163
 95       0.001922038203
 96       0.000609969699
 97      -0.003707920459
 98      -0.003788049564
 99      -0.000043610876
100       0.000083509658
101      -0.000078069052
102       0.001138103424
103      -0.003026250612
104       0.001194143777
105       0.000150383880
106      -0.001825091601
107       0.001523897799
108      -0.000012104796
109       0.000019894757
110       0.000003835949
111       0.000055111686
112       0.000040597085
113       0.001086853651
114      -0.000358355430
115       0.000403022788
116       0.000478668989
117       0.000579215329
118      -0.000066662484
119      -0.000028254982
120       0.000027029766
121      -0.000057970534
122      -0.000039776326
123       0.000105118010
124      -0.000026211717
125      -0.000456274002
126      -0.001842715877
127      -0.003769028336
128      -0.000540991934
129       0.001777965955
130       0.000367928922
131      -0.000434843344
132      -0.002604902847
133      -0.004930527123
134       0.001612998654
135      -0.000037143020
136      -0.001142422826
137      -0.000432644937
138      -0.002733989836
139      -0.005339619251
140      -0.001367709146
141      -0.000884441990
142      -0.001140055930
143      -0.000073732358
144      -0.000863413178
145      -0.001053035332
146       0.000043297514
147      -0.000144860186
148       0.000118737459
149       0.000028472247
150       0.000376076034
151       0.000749763155
152      -0.000021579004
153       0.000057064544
154       0.000056046440
155       0.000026844689
156       0.000243568860
157       0.000125021341
158      -0.000077845502
159       0.000012456455
160       0.000066438675
 Sym=     1a
 Ene= -1.08336937353751E+00
 Spin= Alpha
 Occup= 2.000000
  1       0.088879413627
  2       0.209430085811
  3      -0.300883400580
  4      -0.394971096844
  5      -0.124021507613
  6      -0.030177777418
  7       0.048367072907
  8       0.101907362859
  9      -0.023542740640
 10       0.037398178753
 11       0.078175119980
 12      -0.003573910233
 13       0.002613406878
 14       0.005971382460
 15      -0.004316656751
 16       0.002590949327
 17      -0.004519185644
 18       0.000189768534
 19       0.000917455024
 20      -0.009163089107
 21       0.006145734149
 22      -0.010658125687
 23       0.000184777997
 24       0.000642711919
 25       0.001021308151
 26      -0.001246716205
 27       0.002326271012
 28      -0.000353247907
 29      -0.000989715830
 30      -0.000041246690
 31      -0.000067373570
 32       0.057125409519
 33       0.120328695221
 34      -0.186536009415
 35      -0.146805323105
 36      -0.020516053359
 37       0.033282171638
 38      -0.055648307198
 39      -0.118838074024
 40       0.008855250636
 41      -0.014921418152
 42      -0.033409231833
 43      -0.001723354494
 44       0.002958690674
 45      -0.003195268906
 46      -0.013131414051
 47       0.007344287815
 48      -0.011900310063
 49       0.002589571454
 50       0.004197242886
 51      -0.004754591126
 52       0.001329444427
 53      -0.000790937291
 54       0.004804907597
 55       0.005208134204
 56      -0.001873456704
 57       0.003681607040
 58      -0.007559174328
 59       0.000284853100
 60       0.001664543481
 61      -0.000813132087
 62       0.000536757706
 63       0.008258111101
 64       0.017099238326
 65      -0.025741724026
 66      -0.014898713646
 67       0.004155951483
 68      -0.000264069833
 69       0.004022023505
 70      -0.015906470031
 71       0.000713484438
 72      -0.001360419028
 73      -0.004605877112
 74      -0.000033410303
 75       0.000314311707
 76       0.000151423768
 77      -0.001315159511
 78       0.000092066970
 79       0.000191336791
 80      -0.000023787261
 81      -0.000079952372
 82      -0.001061326706
 83       0.000656343737
 84      -0.001181650537
 85      -0.000376676037
 86      -0.000094629990
 87      -0.000898316925
 88       0.000310609148
 89      -0.000314638586
 90       0.000089216944
 91       0.000034579448
 92      -0.000037735813
 93      -0.000043893365
 94       0.008364736423
 95       0.017330086226
 96      -0.026301714645
 97      -0.014282213970
 98       0.012933556422
 99       0.006415191223
100      -0.014281879628
101      -0.005663526103
102       0.000853985963
103      -0.001982935482
104      -0.003698617809
105       0.000027150328
106       0.002905917844
107       0.001079743660
108       0.000207856107
109       0.000466755574
110      -0.000970875238
111       0.000551369188
112       0.000625696641
113      -0.000833534485
114       0.000700860308
115      -0.000958027202
116      -0.000576892605
117      -0.000109916451
118       0.000208944057
119       0.000370071097
120      -0.000517848628
121       0.000377692148
122       0.000518291523
123       0.000321041573
124      -0.000054706030
125      -0.004945035585
126      -0.004641895586
127      -0.002099186033
128      -0.000278184928
129       0.001078785284
130      -0.000374888716
131      -0.002665384095
132      -0.002819826709
133      -0.000934312917
134       0.000303020110
135       0.000121284584
136      -0.000711063816
137      -0.002998076348
138      -0.003563895213
139      -0.001013490834
140      -0.000368120484
141       0.000000655825
142      -0.000928066233
143      -0.005057610024
144      -0.004620933367
145      -0.002393374605
146       0.000180858181
147      -0.000948207554
148       0.000695992832
149      -0.002966770656
150      -0.003434345779
151      -0.002211923058
152       0.000652305613
153      -0.000608041341
154      -0.000322152171
155      -0.002749414534
156      -0.003503669257
157      -0.000521603402
158      -0.000041215482
159      -0.000713388553
160      -0.000491881693
 Sym=     1a
 Ene= -7.87820808923725E-01
 Spin= Alpha
 Occup= 2.000000
  1      -0.030388483926
  2      -0.072337993030
  3       0.109781777099
  4       0.140106676850
  5       0.071454337896
  6      -0.001136183945
  7       0.003030025514
  8       0.005620166836
  9      -0.001398931261
 10       0.003207461573
 11       0.006585631680
 12       0.000057063971
 13       0.003495284510
 14       0.007310325356
 15       0.000263958648
 16      -0.000177871295
 17       0.000442046819
 18       0.000247729801
 19       0.000145359290
 20      -0.000337868657
 21      -0.000099387275
 22       0.000367127063
 23       0.000463796668
 24       0.000915339512
 25       0.000025424630
 26       0.000019938524
 27      -0.000170664642
 28      -0.000133005743
 29      -0.000036690713
 30      -0.000136286056
 31       0.000047551991
 32       0.044838261903
 33       0.095871819715
 34      -0.152691738656
 35      -0.149118650272
 36      -0.033053776012
 37      -0.033230238794
 38       0.055780602980
 39       0.114468393696
 40      -0.020025263906
 41       0.032784014255
 42       0.068774281308
 43      -0.006584184688
 44       0.004791666949
 45       0.012301001368
 46       0.002811394794
 47      -0.002815581582
 48       0.006695564915
 49       0.003792338901
 50       0.003085217119
 51       0.002505267495
 52      -0.002942861387
 53       0.006790707952
 54       0.003444829948
 55       0.002608140657
 56       0.001105363372
 57       0.000139129462
 58      -0.001331725202
 59      -0.001154537180
 60      -0.001185527788
 61      -0.001409696690
 62       0.000397155961
 63       0.057803953993
 64       0.122990627174
 65      -0.183600051341
 66      -0.216853467904
 67      -0.013057842122
 68      -0.009395543412
 69       0.030332316568
 70      -0.023245395869
 71      -0.008641974107
 72       0.027302573496
 73      -0.021039973981
 74      -0.000638894482
 75       0.004389792252
 76       0.001010824794
 77      -0.000977529673
 78      -0.000974020833
 79       0.003030554400
 80       0.001104072349
 81       0.000863189665
 82      -0.001403821091
 83      -0.002739151310
 84       0.007669365763
 85       0.002437452618
 86       0.001248394631
 87      -0.000509328189
 88      -0.000962746470
 89       0.002823692969
 90       0.002776628127
 91       0.001817800656
 92       0.001056448538
 93      -0.000884266212
 94       0.059711075198
 95       0.127040269468
 96      -0.189141481511
 97      -0.226596471694
 98      -0.014026940453
 99       0.012546829904
100      -0.034757231768
101       0.013197309515
102       0.011311521036
103      -0.033142613966
104       0.012304749885
105       0.003919015772
106       0.000335754675
107      -0.000183572822
108       0.001678945660
109      -0.000420909380
110       0.000915409922
111       0.002134132752
112       0.002068009452
113       0.005647768732
114      -0.001619632653
115       0.003158986850
116       0.005147665317
117       0.004366773456
118      -0.001816786446
119       0.000065593520
120       0.003237892742