
                                 *****************
                                 * O   R   C   A *
                                 *****************

           --- An Ab Initio, DFT and Semiempirical electronic structure package ---

                  #######################################################
                  #                        -***-                        #
                  #          Department of theory and spectroscopy      #
                  #               Directorship: Frank Neese             #
                  #        Max Planck Institute fuer Kohlenforschung    #
                  #                Kaiser Wilhelm Platz 1               #
                  #                 D-45470 Muelheim/Ruhr               #
                  #                      Germany                        #
                  #                                                     #
                  #                  All rights reserved                #
                  #                        -***-                        #
                  #######################################################


                         Program Version 4.2.1 -  RELEASE  -


 With contributions from (in alphabetic order):
   Daniel Aravena         : Magnetic Suceptibility
   Michael Atanasov       : Ab Initio Ligand Field Theory (pilot matlab implementation)
   Alexander A. Auer      : GIAO ZORA, VPT2
   Ute Becker             : Parallelization
   Giovanni Bistoni       : ED, misc. LED, open-shell LED, HFLD
   Martin Brehm           : Molecular dynamics
   Dmytro Bykov           : SCF Hessian
   Vijay G. Chilkuri      : MRCI spin determinant printing, contributions to CSF-ICE
   Dipayan Datta          : RHF DLPNO-CCSD density
   Achintya Kumar Dutta   : EOM-CC, STEOM-CC
   Dmitry Ganyushin       : Spin-Orbit,Spin-Spin,Magnetic field MRCI
   Miquel Garcia          : C-PCM Hessian, Gaussian charge scheme
   Yang Guo               : DLPNO-NEVPT2, CIM, IAO-localization
   Andreas Hansen         : Spin unrestricted coupled pair/coupled cluster methods
   Benjamin Helmich-Paris : CASSCF linear response (MC-RPA)
   Lee Huntington         : MR-EOM, pCC
   Robert Izsak           : Overlap fitted RIJCOSX, COSX-SCS-MP3, EOM
   Christian Kollmar      : KDIIS, OOCD, Brueckner-CCSD(T), CCSD density
   Simone Kossmann        : Meta GGA functionals, TD-DFT gradient, OOMP2, MP2 Hessian
   Martin Krupicka        : AUTO-CI
   Lucas Lang             : DCDCAS
   Dagmar Lenk            : GEPOL surface, SMD
   Dimitrios Liakos       : Extrapolation schemes; Compound Job, initial MDCI parallelization
   Dimitrios Manganas     : Further ROCIS development; embedding schemes
   Dimitrios Pantazis     : SARC Basis sets
   Taras Petrenko         : DFT Hessian,TD-DFT gradient, ASA, ECA, R-Raman, ABS, FL, XAS/XES, NRVS
   Peter Pinski           : DLPNO-MP2, DLPNO-MP2 Gradient
   Christoph Reimann      : Effective Core Potentials
   Marius Retegan         : Local ZFS, SOC
   Christoph Riplinger    : Optimizer, TS searches, QM/MM, DLPNO-CCSD(T), (RO)-DLPNO pert. Triples
   Tobias Risthaus        : Range-separated hybrids, TD-DFT gradient, RPA, STAB
   Michael Roemelt        : Original ROCIS implementation
   Masaaki Saitow         : Open-shell DLPNO-CCSD energy and density
   Barbara Sandhoefer     : DKH picture change effects
   Avijit Sen             : IP-ROCIS
   Kantharuban Sivalingam : CASSCF convergence, NEVPT2, FIC-MRCI
   Bernardo de Souza      : ESD, SOC TD-DFT
   Georgi Stoychev        : AutoAux, RI-MP2 NMR
   Willem Van den Heuvel  : Paramagnetic NMR
   Boris Wezisla          : Elementary symmetry handling
   Frank Wennmohs         : Technical directorship


 We gratefully acknowledge several colleagues who have allowed us to
 interface, adapt or use parts of their codes:
   Stefan Grimme, W. Hujo, H. Kruse,             : VdW corrections, initial TS optimization,
                  C. Bannwarth                     DFT functionals, gCP, sTDA/sTD-DF
   Ed Valeev, F. Pavosevic, A. Kumar             : LibInt (2-el integral package), F12 methods
   Garnet Chan, S. Sharma, J. Yang, R. Olivares  : DMRG
   Ulf Ekstrom                                   : XCFun DFT Library
   Mihaly Kallay                                 : mrcc  (arbitrary order and MRCC methods)
   Andreas Klamt, Michael Diedenhofen            : otool_cosmo (COSMO solvation model)
   Jiri Pittner, Ondrej Demel                    : Mk-CCSD
   Frank Weinhold                                : gennbo (NPA and NBO analysis)
   Christopher J. Cramer and Donald G. Truhlar   : smd solvation model
   Lars Goerigk                                  : TD-DFT with DH, B97 family of functionals
   V. Asgeirsson, H. Jonsson                     : NEB implementation
   FAccTs GmbH                                   : IRC, NEB, NEB-TS, Multilevel, MM, QM/MM, CI optimization
   S Lehtola, MJT Oliveira, MAL Marques          : LibXC Library


 Your calculation uses the libint2 library for the computation of 2-el integrals
 For citations please refer to: http://libint.valeyev.net

 Your ORCA version has been built with support for libXC version: 4.2.3
 For citations please refer to: https://tddft.org/programs/libxc/

 This ORCA versions uses:
   CBLAS   interface :  Fast vector & matrix operations
   LAPACKE interface :  Fast linear algebra routines
   SCALAPACK package :  Parallel linear algebra routines



Reading of a custom basis requested
Basis file         : system.bas
READING GTO-BASIS: OXYGEN
READING GTO-BASIS: CARBON
READING GTO-BASIS: HYDROGEN
Basis successfully read

Reading of a custom AuxJ basis requested
Basis file: system.aux
READING GTO-BASIS: OXYGEN
READING GTO-BASIS: CARBON
READING GTO-BASIS: HYDROGEN
Basis read successfully!

----- Orbital basis set information -----
----- AuxJ basis set information -----
================================================================================
                                        WARNINGS
                       Please study these warnings very carefully!
================================================================================


INFO   : the flag for use of LIBINT has been found!

================================================================================
                                       INPUT FILE
================================================================================
NAME = temp.inp
|  1> * xyz  0 1
|  2>   O    0.347830    9.848639    2.499119
|  3>   C    0.647923    9.351900    1.442275
|  4>   C    0.453584   10.081935    0.138825
|  5>   C    1.235329    7.967310    1.354206
|  6>   H    0.145990   11.108672    0.326978
|  7>   H    1.370486   10.066103   -0.457040
|  8>   H   -0.316395    9.575772   -0.452215
|  9>   H    1.230783    7.496337    2.335143
| 10>   H    2.263066    8.026562    0.983614
| 11>   H    0.677320    7.355838    0.639703
| 12> * 
| 13> 
| 14> %pal
| 15> nprocs 6
| 16> end
| 17> 
| 18> %basis
| 19> GTOName ="system.bas";
| 20> GTOAuxName ="system.aux";
| 21> end
| 22>  
| 23> 
| 24> %pointcharges "background.crg"
| 25> ! DFT PBE0 TightSCF  
| 26> 
| 27> 
| 28>                          ****END OF INPUT****
================================================================================

                       ****************************
                       * Single Point Calculation *
                       ****************************

---------------------------------
CARTESIAN COORDINATES (ANGSTROEM)
---------------------------------
  O      0.347830    9.848639    2.499119
  C      0.647923    9.351900    1.442275
  C      0.453584   10.081935    0.138825
  C      1.235329    7.967310    1.354206
  H      0.145990   11.108672    0.326978
  H      1.370486   10.066103   -0.457040
  H     -0.316395    9.575772   -0.452215
  H      1.230783    7.496337    2.335143
  H      2.263066    8.026562    0.983614
  H      0.677320    7.355838    0.639703

----------------------------
CARTESIAN COORDINATES (A.U.)
----------------------------
  NO LB      ZA    FRAG     MASS         X           Y           Z
   0 O     8.0000    0    15.999    0.657303   18.611231    4.722650
   1 C     6.0000    0    12.011    1.224397   17.672530    2.725505
   2 C     6.0000    0    12.011    0.857150   19.052096    0.262341
   3 C     6.0000    0    12.011    2.334433   15.056034    2.559078
   4 H     1.0000    0     1.008    0.275881   20.992348    0.617899
   5 H     1.0000    0     1.008    2.589843   19.022178   -0.863680
   6 H     1.0000    0     1.008   -0.597900   18.095587   -0.854563
   7 H     1.0000    0     1.008    2.325843   14.166024    4.412781
   8 H     1.0000    0     1.008    4.276575   15.168004    1.858761
   9 H     1.0000    0     1.008    1.279949   13.900519    1.208863

--------------------------------
INTERNAL COORDINATES (ANGSTROEM)
--------------------------------
 O      0   0   0     0.000000000000     0.00000000     0.00000000
 C      1   0   0     1.205705056432     0.00000000     0.00000000
 C      2   1   0     1.506552571484   121.77749645     0.00000000
 C      2   1   3     1.506615885253   121.79622021   180.09345023
 H      3   2   1     1.088211600478   110.12498186     7.24836867
 H      3   2   1     1.093624719935   110.86910156   129.44070131
 H      3   2   1     1.094713170018   109.49936333   247.01700362
 H      4   2   1     1.088151474205   110.08657617     6.00350426
 H      4   2   1     1.094117256576   109.64921233   245.55772346
 H      4   2   1     1.093520273188   110.67883411   128.04344720

---------------------------
INTERNAL COORDINATES (A.U.)
---------------------------
 O      0   0   0     0.000000000000     0.00000000     0.00000000
 C      1   0   0     2.278452354941     0.00000000     0.00000000
 C      2   1   0     2.846971766460   121.77749645     0.00000000
 C      2   1   3     2.847091412144   121.79622021   180.09345023
 H      3   2   1     2.056421900659   110.12498186     7.24836867
 H      3   2   1     2.066651213964   110.86910156   129.44070131
 H      3   2   1     2.068708086530   109.49936333   247.01700362
 H      4   2   1     2.056308278470   110.08657617     6.00350426
 H      4   2   1     2.067581973326   109.64921233   245.55772346
 H      4   2   1     2.066453838217   110.67883411   128.04344720

---------------------
BASIS SET INFORMATION
---------------------
There are 3 groups of distinct atoms

 Group   1 Type O   : 11s6p2d1f contracted to 5s3p2d1f pattern {62111/411/11/1}
 Group   2 Type C   : 11s6p2d1f contracted to 5s3p2d1f pattern {62111/411/11/1}
 Group   3 Type H   : 5s1p contracted to 3s1p pattern {311/1}

Atom   0O    basis set group =>   1
Atom   1C    basis set group =>   2
Atom   2C    basis set group =>   2
Atom   3C    basis set group =>   2
Atom   4H    basis set group =>   3
Atom   5H    basis set group =>   3
Atom   6H    basis set group =>   3
Atom   7H    basis set group =>   3
Atom   8H    basis set group =>   3
Atom   9H    basis set group =>   3
---------------------------------
AUXILIARY/J BASIS SET INFORMATION
---------------------------------
There are 3 groups of distinct atoms

 Group   1 Type O   : 8s6p5d3f1g contracted to 8s6p4d3f1g pattern {11111111/111111/2111/111/1}
 Group   2 Type C   : 8s6p5d3f1g contracted to 8s6p4d3f1g pattern {11111111/111111/2111/111/1}
 Group   3 Type H   : 4s3p2d contracted to 4s2p1d pattern {1111/21/2}

Atom   0O    basis set group =>   1
Atom   1C    basis set group =>   2
Atom   2C    basis set group =>   2
Atom   3C    basis set group =>   2
Atom   4H    basis set group =>   3
Atom   5H    basis set group =>   3
Atom   6H    basis set group =>   3
Atom   7H    basis set group =>   3
Atom   8H    basis set group =>   3
Atom   9H    basis set group =>   3

Checking for AutoStart:
The File: temp.gbw exists
Trying to determine its content:
     ... Fine, the file contains calculation information
     ... Fine, the calculation information was read
     ... Fine, the file contains a basis set
     ... Fine, the basis set was read
     ... Fine, the file contains a geometry
     ... Fine, the geometry was read
     ... Fine, the file contains a set of orbitals
     ... Fine, the orbitals can be read
     => possible old guess file was deleted
     => GBW file was renamed to GES file
     => GES file is set as startup file
     => Guess is set to MORead
     ... now leaving AutoStart



           ************************************************************
           *        Program running with 6 parallel MPI-processes     *
           *              working on a common directory               *
           ************************************************************
------------------------------------------------------------------------------
                           ORCA GTO INTEGRAL CALCULATION
------------------------------------------------------------------------------

                         BASIS SET STATISTICS AND STARTUP INFO

 # of primitive gaussian shells          ...  116
 # of primitive gaussian functions       ...  232
 # of contracted shells                  ...   68
 # of contracted basis functions         ...  160
 Highest angular momentum                ...    3
 Maximum contraction depth               ...    6
 Integral package used                   ... LIBINT
 Integral threshhold            Thresh   ...  2.500e-11
 Primitive cut-off              TCut     ...  2.500e-12


------------------------------ INTEGRAL EVALUATION ----------------------------


 * One electron integrals 
 Pre-screening matrix                    ... done
 Shell pair data                         ... done (   0.001 sec)

ENUC WAS=  0.000000000


           ************************************************************
           *        Program running with 6 parallel MPI-processes     *
           *              working on a common directory               *
           ************************************************************
------------------------------------------------------------------------------
                            ORCA POINT-CHARGE CORRECTION
------------------------------------------------------------------------------

BaseName                           ... temp
Point charge file                  ... background.crg

Reading the GBW file               ... done
Reading the one-electron matrix    ... done
Reading the point charges          ... done
Number of point charges            ... 288
Reading the nuclear-repulsion      ... done
Charge-Nuclei interaction          ... done
The nuclear repulsion file was updated
Doing the point charge correction  ... done
Storing the one-electron matrix    ... done

ENUC IS = 119.862198460


           ************************************************************
           *        Program running with 6 parallel MPI-processes     *
           *              working on a common directory               *
           ************************************************************
-------------------------------------------------------------------------------
                                 ORCA SCF
-------------------------------------------------------------------------------

------------
SCF SETTINGS
------------
Hamiltonian:
 Density Functional     Method          .... DFT(GTOs)
 Exchange Functional    Exchange        .... PBE
   PBE kappa parameter   XKappa         ....  0.804000
   PBE mue parameter    XMuePBE         ....  0.219520
 Correlation Functional Correlation     .... PBE
   PBE beta parameter  CBetaPBE         ....  0.066725
 LDA part of GGA corr.  LDAOpt          .... PW91-LDA
 Gradients option       PostSCFGGA      .... off
 Hybrid DFT is turned on
   Fraction HF Exchange ScalHFX         ....  0.250000
   Scaling of DF-GGA-X  ScalDFX         ....  0.750000
   Scaling of DF-GGA-C  ScalDFC         ....  1.000000
   Scaling of DF-LDA-C  ScalLDAC        ....  1.000000
   Perturbative correction              ....  0.000000
   Density functional embedding theory  .... OFF
   NL short-range parameter             ....  6.900000


General Settings:
 Integral files         IntName         .... temp
 Hartree-Fock type      HFTyp           .... RHF
 Total Charge           Charge          ....    0
 Multiplicity           Mult            ....    1
 Number of Electrons    NEL             ....   32
 Basis Dimension        Dim             ....  160
 Nuclear Repulsion      ENuc            ....    119.8621984596 Eh

Convergence Acceleration:
 DIIS                   CNVDIIS         .... on
   Start iteration      DIISMaxIt       ....    12
   Startup error        DIISStart       ....  0.200000
   # of expansion vecs  DIISMaxEq       ....     5
   Bias factor          DIISBfac        ....   1.050
   Max. coefficient     DIISMaxC        ....  10.000
 Newton-Raphson         CNVNR           .... off
 SOSCF                  CNVSOSCF        .... on
   Start iteration      SOSCFMaxIt      ....   150
   Startup grad/error   SOSCFStart      ....  0.003300
 Level Shifting         CNVShift        .... on
   Level shift para.    LevelShift      ....    0.2500
   Turn off err/grad.   ShiftErr        ....    0.0010
 Zerner damping         CNVZerner       .... off
 Static damping         CNVDamp         .... on
   Fraction old density DampFac         ....    0.7000
   Max. Damping (<1)    DampMax         ....    0.9800
   Min. Damping (>=0)   DampMin         ....    0.0000
   Turn off err/grad.   DampErr         ....    0.1000
 Fernandez-Rico         CNVRico         .... off

SCF Procedure:
 Maximum # iterations   MaxIter         ....   125
 SCF integral mode      SCFMode         .... Direct
   Integral package                     .... LIBINT
 Reset frequency        DirectResetFreq ....    20
 Integral Threshold     Thresh          ....  2.500e-11 Eh
 Primitive CutOff       TCut            ....  2.500e-12 Eh

Convergence Tolerance:
 Convergence Check Mode ConvCheckMode   .... Total+1el-Energy
 Convergence forced     ConvForced      .... 0
 Energy Change          TolE            ....  1.000e-08 Eh
 1-El. energy change                    ....  1.000e-05 Eh
 Orbital Gradient       TolG            ....  1.000e-05
 Orbital Rotation angle TolX            ....  1.000e-05
 DIIS Error             TolErr          ....  5.000e-07


Diagonalization of the overlap matrix:
Smallest eigenvalue                        ... 3.783e-04
Time for diagonalization                   ...    0.002 sec
Threshold for overlap eigenvalues          ... 1.000e-08
Number of eigenvalues below threshold      ... 0
Time for construction of square roots      ...    0.002 sec
Total time needed                          ...    0.004 sec

---------------------
INITIAL GUESS: MOREAD
---------------------
Guess MOs are being read from file: temp.ges
Input Geometry matches current geometry (good)
Input basis set matches current basis set (good)
MOs were renormalized
MOs were reorthogonalized (Cholesky)
                      ------------------
                      INITIAL GUESS DONE (   0.0 sec)
                      ------------------
-------------------
DFT GRID GENERATION
-------------------

General Integration Accuracy     IntAcc      ...  4.340
Radial Grid Type                 RadialGrid  ... Gauss-Chebyshev
Angular Grid (max. acc.)         AngularGrid ... Lebedev-110
Angular grid pruning method      GridPruning ... 3 (G Style)
Weight generation scheme         WeightScheme... Becke
Basis function cutoff            BFCut       ...    1.0000e-11
Integration weight cutoff        WCut        ...    1.0000e-14
Grids for H and He will be reduced by one unit

# of grid points (after initial pruning)     ...  11448 (   0.0 sec)
# of grid points (after weights+screening)   ...  10896 (   0.0 sec)
nearest neighbour list constructed           ...    0.0 sec
Grid point re-assignment to atoms done       ...    0.0 sec
Grid point division into batches done        ...    0.0 sec
Reduced shell lists constructed in    0.0 sec

Total number of grid points                  ...    10896
Total number of batches                      ...      175
Average number of points per batch           ...       62
Average number of grid points per atom       ...     1090
Average number of shells per batch           ...    53.10 (78.08%)
Average number of basis functions per batch  ...   132.00 (82.50%)
Average number of large shells per batch     ...    43.58 (82.08%)
Average number of large basis fcns per batch ...   110.16 (83.46%)
Maximum spatial batch extension              ...  23.07, 15.92, 14.44 au
Average spatial batch extension              ...   0.88,  0.74,  0.67 au

Time for grid setup =    0.028 sec

--------------
SCF ITERATIONS
--------------
ITER       Energy         Delta-E        Max-DP      RMS-DP      [F,P]     Damp
               ***  Starting incremental Fock matrix formation  ***
                      *** Initiating the SOSCF procedure ***
                      *** Re-Reading the Fockian *** 
                      *** Removing any level shift *** 
ITER      Energy       Delta-E        Grad      Rot      Max-DP    RMS-DP
  0   -193.02570999 -193.0257099886  0.000000  0.000000  0.000000  0.000000
               *** Restarting incremental Fock matrix formation ***
                 **** Energy Check signals convergence ****
              ***Rediagonalizing the Fockian in SOSCF/NRSCF***

               *****************************************************
               *                     SUCCESS                       *
               *           SCF CONVERGED AFTER   1 CYCLES          *
               *****************************************************

Setting up the final grid:

General Integration Accuracy     IntAcc      ...  4.670
Radial Grid Type                 RadialGrid  ... Gauss-Chebyshev
Angular Grid (max. acc.)         AngularGrid ... Lebedev-302
Angular grid pruning method      GridPruning ... 3 (G Style)
Weight generation scheme         WeightScheme... Becke
Basis function cutoff            BFCut       ...    1.0000e-11
Integration weight cutoff        WCut        ...    1.0000e-14
Grids for H and He will be reduced by one unit

# of grid points (after initial pruning)     ...  45212 (   0.0 sec)
# of grid points (after weights+screening)   ...  42619 (   0.0 sec)
nearest neighbour list constructed           ...    0.0 sec
Grid point re-assignment to atoms done       ...    0.0 sec
Grid point division into batches done        ...    0.1 sec
Reduced shell lists constructed in    0.2 sec

Total number of grid points                  ...    42619
Total number of batches                      ...      671
Average number of points per batch           ...       63
Average number of grid points per atom       ...     4262
Average number of shells per batch           ...    48.62 (71.50%)
Average number of basis functions per batch  ...   121.61 (76.01%)
Average number of large shells per batch     ...    40.08 (82.44%)
Average number of large basis fcns per batch ...   100.17 (82.37%)
Maximum spatial batch extension              ...  16.69, 14.35, 13.58 au
Average spatial batch extension              ...   0.52,  0.47,  0.46 au

Final grid set up in    0.3 sec
Final integration                            ... done (   0.1 sec)
Change in XC energy                          ...     0.000412313
Integrated number of electrons               ...    32.000015989
Previous integrated no of electrons          ...    32.001996390

----------------
TOTAL SCF ENERGY
----------------

Total Energy       :         -193.02529768 Eh           -5252.48538 eV

Components:
Nuclear Repulsion  :          119.86219846 Eh            3261.61624 eV
Electronic Energy  :         -312.88749614 Eh           -8514.10162 eV
One Electron Energy:         -498.52093822 Eh          -13565.44438 eV
Two Electron Energy:          185.63344208 Eh            5051.34276 eV

Virial components:
Potential Energy   :         -385.14981296 Eh          -10480.45923 eV
Kinetic Energy     :          192.12451528 Eh            5227.97385 eV
Virial Ratio       :            2.00468853


DFT components:
N(Alpha)           :       16.000007994500 electrons
N(Beta)            :       16.000007994500 electrons
N(Total)           :       32.000015988999 electrons
E(X)               :      -19.371776262667 Eh       
E(C)               :       -1.042764859503 Eh       
E(XC)              :      -20.414541122170 Eh       
DFET-embed. en.    :        0.000000000000 Eh       

---------------
SCF CONVERGENCE
---------------

  Last Energy change         ...   -3.7801e-12  Tolerance :   1.0000e-08
  Last MAX-Density change    ...    2.9331e-07  Tolerance :   1.0000e-07
  Last RMS-Density change    ...    1.0191e-08  Tolerance :   5.0000e-09
  Last Orbital Gradient      ...    1.1703e-07  Tolerance :   1.0000e-05
  Last Orbital Rotation      ...    2.5964e-07  Tolerance :   1.0000e-05

             **** THE GBW FILE WAS UPDATED (temp.gbw) ****
             **** DENSITY FILE WAS UPDATED (temp.scfp) ****
             **** ENERGY FILE WAS UPDATED (temp.en.tmp) ****
             **** THE GBW FILE WAS UPDATED (temp.gbw) ****
             **** DENSITY FILE WAS UPDATED (temp.scfp) ****
----------------
ORBITAL ENERGIES
----------------

  NO   OCC          E(Eh)            E(eV) 
   0   2.0000     -19.199734      -522.4513 
   1   2.0000     -10.316500      -280.7262 
   2   2.0000     -10.213810      -277.9319 
   3   2.0000     -10.212231      -277.8889 
   4   2.0000      -1.083369       -29.4800 
   5   2.0000      -0.787821       -21.4377 
   6   2.0000      -0.723818       -19.6961 
   7   2.0000      -0.549324       -14.9479 
   8   2.0000      -0.475495       -12.9389 
   9   2.0000      -0.472408       -12.8549 
  10   2.0000      -0.470840       -12.8122 
  11   2.0000      -0.406977       -11.0744 
  12   2.0000      -0.402960       -10.9651 
  13   2.0000      -0.381896       -10.3919 
  14   2.0000      -0.370924       -10.0934 
  15   2.0000      -0.271023        -7.3749 
  16   0.0000      -0.012235        -0.3329 
  17   0.0000       0.059356         1.6151 
  18   0.0000       0.111605         3.0369 
  19   0.0000       0.122022         3.3204 
  20   0.0000       0.137751         3.7484 
  21   0.0000       0.149188         4.0596 
  22   0.0000       0.153193         4.1686 
  23   0.0000       0.166166         4.5216 
  24   0.0000       0.170202         4.6314 
  25   0.0000       0.204160         5.5555 
  26   0.0000       0.222849         6.0640 
  27   0.0000       0.236612         6.4385 
  28   0.0000       0.243244         6.6190 
  29   0.0000       0.316466         8.6115 
  30   0.0000       0.319946         8.7062 
  31   0.0000       0.324230         8.8228 
  32   0.0000       0.379599        10.3294 
  33   0.0000       0.386187        10.5087 
  34   0.0000       0.418046        11.3756 
  35   0.0000       0.426204        11.5976 
  36   0.0000       0.436184        11.8692 
  37   0.0000       0.454011        12.3543 
  38   0.0000       0.461398        12.5553 
  39   0.0000       0.486650        13.2424 
  40   0.0000       0.490435        13.3454 
  41   0.0000       0.511047        13.9063 
  42   0.0000       0.544304        14.8113 
  43   0.0000       0.584135        15.8951 
  44   0.0000       0.597701        16.2643 
  45   0.0000       0.626457        17.0468 
  46   0.0000       0.675516        18.3817 
  47   0.0000       0.680852        18.5269 
  48   0.0000       0.726999        19.7826 
  49   0.0000       0.799964        21.7681 
  50   0.0000       0.839914        22.8552 
  51   0.0000       0.844981        22.9931 
  52   0.0000       0.918822        25.0024 
  53   0.0000       0.955028        25.9876 
  54   0.0000       0.990291        26.9472 
  55   0.0000       0.996474        27.1154 
  56   0.0000       1.013201        27.5706 
  57   0.0000       1.069124        29.0924 
  58   0.0000       1.119813        30.4717 
  59   0.0000       1.122609        30.5477 
  60   0.0000       1.145417        31.1684 
  61   0.0000       1.239295        33.7229 
  62   0.0000       1.393947        37.9312 
  63   0.0000       1.419291        38.6209 
  64   0.0000       1.453815        39.5603 
  65   0.0000       1.516462        41.2650 
  66   0.0000       1.521608        41.4051 
  67   0.0000       1.534807        41.7642 
  68   0.0000       1.536287        41.8045 
  69   0.0000       1.547188        42.1011 
  70   0.0000       1.577401        42.9233 
  71   0.0000       1.584611        43.1195 
  72   0.0000       1.599202        43.5165 
  73   0.0000       1.642257        44.6881 
  74   0.0000       1.664471        45.2926 
  75   0.0000       1.717462        46.7345 
  76   0.0000       1.859029        50.5868 
  77   0.0000       1.880722        51.1771 
  78   0.0000       1.887617        51.3647 
  79   0.0000       1.965809        53.4924 
  80   0.0000       2.010848        54.7179 
  81   0.0000       2.037736        55.4496 
  82   0.0000       2.054820        55.9145 
  83   0.0000       2.101346        57.1805 
  84   0.0000       2.127733        57.8986 
  85   0.0000       2.171471        59.0887 
  86   0.0000       2.181446        59.3602 
  87   0.0000       2.212973        60.2181 
  88   0.0000       2.224305        60.5264 
  89   0.0000       2.342253        63.7359 
  90   0.0000       2.364052        64.3291 
  91   0.0000       2.364735        64.3477 
  92   0.0000       2.410815        65.6016 
  93   0.0000       2.465411        67.0873 
  94   0.0000       2.481460        67.5240 
  95   0.0000       2.533733        68.9464 
  96   0.0000       2.544935        69.2512 
  97   0.0000       2.574959        70.0682 
  98   0.0000       2.576108        70.0995 
  99   0.0000       2.669026        72.6279 
 100   0.0000       2.711443        73.7821 
 101   0.0000       2.765448        75.2517 
 102   0.0000       2.801930        76.2444 
 103   0.0000       2.820715        76.7556 
 104   0.0000       2.861409        77.8629 
 105   0.0000       2.916517        79.3625 
 106   0.0000       2.982575        81.1600 
 107   0.0000       2.990387        81.3726 
 108   0.0000       3.008892        81.8761 
 109   0.0000       3.081812        83.8604 
 110   0.0000       3.085241        83.9537 
 111   0.0000       3.107845        84.5688 
 112   0.0000       3.122922        84.9790 
 113   0.0000       3.137935        85.3876 
 114   0.0000       3.154140        85.8285 
 115   0.0000       3.240502        88.1785 
 116   0.0000       3.301084        89.8271 
 117   0.0000       3.313611        90.1679 
 118   0.0000       3.325879        90.5018 
 119   0.0000       3.384141        92.0872 
 120   0.0000       3.394521        92.3696 
 121   0.0000       3.433133        93.4203 
 122   0.0000       3.461838        94.2014 
 123   0.0000       3.501499        95.2806 
 124   0.0000       3.536613        96.2361 
 125   0.0000       3.555153        96.7406 
 126   0.0000       3.686252       100.3080 
 127   0.0000       3.775282       102.7307 
 128   0.0000       3.872370       105.3725 
 129   0.0000       3.876311       105.4798 
 130   0.0000       3.912202       106.4564 
 131   0.0000       3.989945       108.5719 
 132   0.0000       3.997136       108.7676 
 133   0.0000       4.019910       109.3873 
 134   0.0000       4.075578       110.9021 
 135   0.0000       4.338740       118.0631 
 136   0.0000       4.378585       119.1474 
 137   0.0000       4.398715       119.6951 
 138   0.0000       4.414304       120.1193 
 139   0.0000       4.456938       121.2795 
 140   0.0000       4.539367       123.5225 
 141   0.0000       4.674407       127.1971 
 142   0.0000       4.782957       130.1509 
 143   0.0000       4.796965       130.5320 
 144   0.0000       5.197566       141.4330 
 145   0.0000       5.201761       141.5471 
 146   0.0000       5.610801       152.6776 
 147   0.0000       5.694856       154.9649 
 148   0.0000       6.161391       167.6600 
 149   0.0000       6.355618       172.9451 
 150   0.0000       6.397439       174.0832 
 151   0.0000       6.520949       177.4441 
 152   0.0000       6.549166       178.2119 
 153   0.0000       6.816030       185.4736 
 154   0.0000       7.000321       190.4884 
 155   0.0000       7.082238       192.7175 
 156   0.0000      22.403648       609.6343 
 157   0.0000      22.418203       610.0303 
 158   0.0000      23.057140       627.4167 
 159   0.0000      43.919327      1195.1057 

                    ********************************
                    * MULLIKEN POPULATION ANALYSIS *
                    ********************************

-----------------------
MULLIKEN ATOMIC CHARGES
-----------------------
   0 O :   -0.409478
   1 C :    0.201953
   2 C :   -0.348722
   3 C :   -0.342061
   4 H :    0.138117
   5 H :    0.170874
   6 H :    0.137837
   7 H :    0.148823
   8 H :    0.153150
   9 H :    0.149507
Sum of atomic charges:   -0.0000000

--------------------------------
MULLIKEN REDUCED ORBITAL CHARGES
--------------------------------
  0 O s       :     3.791819  s :     3.791819
      pz      :     1.471865  p :     4.585616
      px      :     1.402644
      py      :     1.711107
      dz2     :     0.009022  d :     0.030172
      dxz     :     0.008314
      dyz     :     0.007958
      dx2y2   :     0.002656
      dxy     :     0.002221
      f0      :     0.000471  f :     0.001871
      f+1     :     0.000336
      f-1     :     0.000460
      f+2     :     0.000315
      f-2     :     0.000271
      f+3     :     0.000013
      f-3     :     0.000006
  1 C s       :     3.182923  s :     3.182923
      pz      :     0.844914  p :     2.400208
      px      :     0.692717
      py      :     0.862577
      dz2     :     0.051180  d :     0.196959
      dxz     :     0.044174
      dyz     :     0.056476
      dx2y2   :     0.023296
      dxy     :     0.021833
      f0      :     0.005576  f :     0.017958
      f+1     :     0.002510
      f-1     :     0.002796
      f+2     :     0.002781
      f-2     :     0.002550
      f+3     :     0.000690
      f-3     :     0.001054
  2 C s       :     3.206158  s :     3.206158
      pz      :     0.979390  p :     3.096945
      px      :     1.070781
      py      :     1.046774
      dz2     :     0.008921  d :     0.042500
      dxz     :     0.011734
      dyz     :     0.009695
      dx2y2   :     0.007605
      dxy     :     0.004544
      f0      :     0.000865  f :     0.003119
      f+1     :     0.000329
      f-1     :     0.000600
      f+2     :     0.000606
      f-2     :     0.000342
      f+3     :     0.000208
      f-3     :     0.000170
  3 C s       :     3.209212  s :     3.209212
      pz      :     1.060495  p :     3.088802
      px      :     1.068205
      py      :     0.960103
      dz2     :     0.006741  d :     0.040988
      dxz     :     0.005906
      dyz     :     0.013230
      dx2y2   :     0.008667
      dxy     :     0.006444
      f0      :     0.000482  f :     0.003058
      f+1     :     0.000081
      f-1     :     0.000744
      f+2     :     0.000361
      f-2     :     0.000423
      f+3     :     0.000605
      f-3     :     0.000361
  4 H s       :     0.840377  s :     0.840377
      pz      :     0.004223  p :     0.021507
      px      :     0.005104
      py      :     0.012179
  5 H s       :     0.807572  s :     0.807572
      pz      :     0.007422  p :     0.021554
      px      :     0.009888
      py      :     0.004245
  6 H s       :     0.840484  s :     0.840484
      pz      :     0.007327  p :     0.021678
      px      :     0.008569
      py      :     0.005782
  7 H s       :     0.829931  s :     0.829931
      pz      :     0.010921  p :     0.021246
      px      :     0.004279
      py      :     0.006046
  8 H s       :     0.825072  s :     0.825072
      pz      :     0.005356  p :     0.021778
      px      :     0.011986
      py      :     0.004436
  9 H s       :     0.828990  s :     0.828990
      pz      :     0.008445  p :     0.021503
      px      :     0.005918
      py      :     0.007140


                     *******************************
                     * LOEWDIN POPULATION ANALYSIS *
                     *******************************

----------------------
LOEWDIN ATOMIC CHARGES
----------------------
   0 O :    0.062076
   1 C :   -0.385389
   2 C :   -0.263447
   3 C :   -0.266487
   4 H :    0.133614
   5 H :    0.148374
   6 H :    0.144448
   7 H :    0.133620
   8 H :    0.148512
   9 H :    0.144679

-------------------------------
LOEWDIN REDUCED ORBITAL CHARGES
-------------------------------
  0 O s       :     3.394691  s :     3.394691
      pz      :     1.546901  p :     4.468197
      px      :     1.325940
      py      :     1.595356
      dz2     :     0.026873  d :     0.068865
      dxz     :     0.011826
      dyz     :     0.021231
      dx2y2   :     0.004128
      dxy     :     0.004806
      f0      :     0.002036  f :     0.006172
      f+1     :     0.000876
      f-1     :     0.001637
      f+2     :     0.000660
      f-2     :     0.000808
      f+3     :     0.000115
      f-3     :     0.000040
  1 C s       :     2.779065  s :     2.779065
      pz      :     1.014682  p :     2.695589
      px      :     0.703807
      py      :     0.977100
      dz2     :     0.247635  d :     0.796430
      dxz     :     0.140853
      dyz     :     0.232775
      dx2y2   :     0.087017
      dxy     :     0.088149
      f0      :     0.037760  f :     0.114305
      f+1     :     0.014059
      f-1     :     0.016951
      f+2     :     0.018436
      f-2     :     0.018244
      f+3     :     0.003930
      f-3     :     0.004924
  2 C s       :     2.836059  s :     2.836059
      pz      :     1.051569  p :     3.186284
      px      :     1.071731
      py      :     1.062983
      dz2     :     0.048389  d :     0.218309
      dxz     :     0.057102
      dyz     :     0.048115
      dx2y2   :     0.040562
      dxy     :     0.024141
      f0      :     0.006368  f :     0.022795
      f+1     :     0.002107
      f-1     :     0.005003
      f+2     :     0.002850
      f-2     :     0.003072
      f+3     :     0.001802
      f-3     :     0.001593
  3 C s       :     2.836436  s :     2.836436
      pz      :     1.074239  p :     3.189139
      px      :     1.070152
      py      :     1.044748
      dz2     :     0.032707  d :     0.218062
      dxz     :     0.024534
      dyz     :     0.067126
      dx2y2   :     0.053368
      dxy     :     0.040328
      f0      :     0.003168  f :     0.022851
      f+1     :     0.001519
      f-1     :     0.003938
      f+2     :     0.002580
      f-2     :     0.003892
      f+3     :     0.004520
      f-3     :     0.003234
  4 H s       :     0.803444  s :     0.803444
      pz      :     0.012938  p :     0.062942
      px      :     0.015196
      py      :     0.034808
  5 H s       :     0.788142  s :     0.788142
      pz      :     0.020138  p :     0.063484
      px      :     0.030336
      py      :     0.013009
  6 H s       :     0.792818  s :     0.792818
      pz      :     0.019695  p :     0.062735
      px      :     0.024838
      py      :     0.018202
  7 H s       :     0.803205  s :     0.803205
      pz      :     0.033446  p :     0.063175
      px      :     0.013095
      py      :     0.016633
  8 H s       :     0.788328  s :     0.788328
      pz      :     0.016251  p :     0.063160
      px      :     0.033785
      py      :     0.013124
  9 H s       :     0.792202  s :     0.792202
      pz      :     0.024142  p :     0.063118
      px      :     0.019364
      py      :     0.019612


                      *****************************
                      * MAYER POPULATION ANALYSIS *
                      *****************************

  NA   - Mulliken gross atomic population
  ZA   - Total nuclear charge
  QA   - Mulliken gross atomic charge
  VA   - Mayer's total valence
  BVA  - Mayer's bonded valence
  FA   - Mayer's free valence

  ATOM       NA         ZA         QA         VA         BVA        FA
  0 O      8.4095     8.0000    -0.4095     2.0390     2.0390     0.0000
  1 C      5.7980     6.0000     0.2020     4.1203     4.1203    -0.0000
  2 C      6.3487     6.0000    -0.3487     3.7711     3.7711    -0.0000
  3 C      6.3421     6.0000    -0.3421     3.7762     3.7762     0.0000
  4 H      0.8619     1.0000     0.1381     0.9902     0.9902     0.0000
  5 H      0.8291     1.0000     0.1709     0.9662     0.9662     0.0000
  6 H      0.8622     1.0000     0.1378     0.9733     0.9733     0.0000
  7 H      0.8512     1.0000     0.1488     0.9821     0.9821     0.0000
  8 H      0.8468     1.0000     0.1532     0.9797     0.9797    -0.0000
  9 H      0.8505     1.0000     0.1495     0.9669     0.9669     0.0000

  Mayer bond orders larger than 0.100000
B(  0-O ,  1-C ) :   2.0069 B(  1-C ,  2-C ) :   1.0035 B(  1-C ,  3-C ) :   1.0238 
B(  2-C ,  4-H ) :   0.9593 B(  2-C ,  5-H ) :   0.9355 B(  2-C ,  6-H ) :   0.9346 
B(  3-C ,  7-H ) :   0.9486 B(  3-C ,  8-H ) :   0.9358 B(  3-C ,  9-H ) :   0.9350 


-------
TIMINGS
-------

Total SCF time: 0 days 0 hours 0 min 2 sec 

Total time                  ....       2.111 sec
Sum of individual times     ....       1.928 sec  ( 91.3%)

Fock matrix formation       ....       1.623 sec  ( 76.9%)
  XC integration            ....       0.181 sec  ( 11.2% of F)
    Basis function eval.    ....       0.032 sec  ( 17.4% of XC)
    Density eval.           ....       0.030 sec  ( 16.6% of XC)
    XC-Functional eval.     ....       0.007 sec  (  3.6% of XC)
    XC-Potential eval.      ....       0.060 sec  ( 33.2% of XC)
Diagonalization             ....       0.003 sec  (  0.2%)
Density matrix formation    ....       0.001 sec  (  0.1%)
Population analysis         ....       0.008 sec  (  0.4%)
Initial guess               ....       0.005 sec  (  0.2%)
Orbital Transformation      ....       0.000 sec  (  0.0%)
Orbital Orthonormalization  ....       0.003 sec  (  0.1%)
DIIS solution               ....       0.001 sec  (  0.0%)
SOSCF solution              ....       0.002 sec  (  0.1%)
Grid generation             ....       0.286 sec  ( 13.5%)

-------------------------   --------------------
FINAL SINGLE POINT ENERGY      -193.025297675606
-------------------------   --------------------


                            ***************************************
                            *     ORCA property calculations      *
                            ***************************************

                                    ---------------------
                                    Active property flags
                                    ---------------------
   (+) Dipole Moment


------------------------------------------------------------------------------
                       ORCA ELECTRIC PROPERTIES CALCULATION
------------------------------------------------------------------------------

Dipole Moment Calculation                       ... on
Quadrupole Moment Calculation                   ... off
Polarizability Calculation                      ... off
GBWName                                         ... temp.gbw
Electron density file                           ... temp.scfp
The origin for moment calculation is the CENTER OF MASS  = ( 1.270453, 17.593905  2.558762)

-------------
DIPOLE MOMENT
-------------
                                X             Y             Z
Electronic contribution:     -0.86120       1.42249       2.95428
Nuclear contribution   :      1.24999      -2.08650      -4.43757
                        -----------------------------------------
Total Dipole Moment    :      0.38880      -0.66401      -1.48330
                        -----------------------------------------
Magnitude (a.u.)       :      1.67100
Magnitude (Debye)      :      4.24734



--------------------
Rotational spectrum 
--------------------
 
Rotational constants in cm-1:     0.341602     0.286936     0.165457 
Rotational constants in MHz : 10240.985309  8602.118847  4960.287623 

 Dipole components along the rotational axes: 
x,y,z [a.u.] :     0.036385    -1.670525     0.015895 
x,y,z [Debye]:     0.092483    -4.246138     0.040401 

 

Timings for individual modules:

Sum of individual times         ...        2.614 sec (=   0.044 min)
GTO integral calculation        ...        0.347 sec (=   0.006 min)  13.3 %
SCF iterations                  ...        2.267 sec (=   0.038 min)  86.7 %
                             ****ORCA TERMINATED NORMALLY****
TOTAL RUN TIME: 0 days 0 hours 0 minutes 6 seconds 996 msec
