[Molden Format]
[Title]
 Molden file created by orca_2mkl for BaseName=temp

[Atoms] AU
O    1   8          0.0503989960        17.7086727339         4.7229055991 
C    2   6          1.7309211085        17.6661746828         3.1849255288 
C    3   6          1.8537287408        19.5412629981         1.0461845131 
C    4   6          3.8181047262        15.7330094143         3.2965894461 
H    5   1          0.4049664208        20.9812588786         1.2836229326 
H    6   1          3.7215964125        20.4196625072         0.9435478176 
H    7   1          1.5553296459        18.5600434901        -0.7504007991 
H    8   1          3.4328632668        14.3627028541         4.7805875996 
H    9   1          5.6182635105        16.6748281324         3.6803890445 
H   10   1          4.0231494603        14.7745951212         1.4773519867 
[GTO]
  1 0
s   6 1.0 
    27032.3800000000         0.8598581393
     4052.3870000000         1.6055304059
      922.3272000000         2.7458780898
      261.2407000000         4.2987677378
       85.3546400000         5.8797670930
       31.0350400000         6.3163984679
s   2 1.0 
       12.2608600000         2.9812145398
        4.9987080000         0.9419560379
s   1 1.0 
        1.1703110000         0.8019292557
s   1 1.0 
        0.4647474000         0.4011647998
s   1 1.0 
        0.1850454000         0.2010799703
p   4 1.0 
       63.2749500000         3.0572013698
       14.6270500000         3.3844845670
        4.4501220000         2.9474258212
        1.5275800000         1.7118271901
p   1 1.0 
        0.5293512000         0.6436058239
p   1 1.0 
        0.1747842000         0.1610897108
d   1 1.0 
        2.3140000000        12.3767310624
d   1 1.0 
        0.6450000000         1.3234257612
f   1 1.0 
        1.4280000000        12.7097950062

  2 0
s   6 1.0 
    13575.3500000000         0.5435905009
     2035.2330000000         1.0145543008
      463.2256000000         1.7315731015
      131.2002000000         2.6910371555
       42.8530200000         3.6044547316
       15.5841900000         3.7025565440
s   2 1.0 
        6.2067140000         1.8383540114
        2.5764900000         0.5447576606
s   1 1.0 
        0.5769634000         0.4718145074
s   1 1.0 
        0.2297283000         0.2364944571
s   1 1.0 
        0.0951644400         0.1221141848
p   4 1.0 
       34.6972300000         1.3596652360
        7.9582620000         1.4512590746
        2.3780830000         1.2709231872
        0.8143321000         0.8025721831
p   1 1.0 
        0.2888755000         0.3018759228
p   1 1.0 
        0.1005682000         0.0807264648
d   1 1.0 
        1.0970000000         3.3522135855
d   1 1.0 
        0.3180000000         0.3838994974
f   1 1.0 
        0.7610000000         3.0840084332

  3 0
s   6 1.0 
    13575.3500000000         0.5435905009
     2035.2330000000         1.0145543008
      463.2256000000         1.7315731015
      131.2002000000         2.6910371555
       42.8530200000         3.6044547316
       15.5841900000         3.7025565440
s   2 1.0 
        6.2067140000         1.8383540114
        2.5764900000         0.5447576606
s   1 1.0 
        0.5769634000         0.4718145074
s   1 1.0 
        0.2297283000         0.2364944571
s   1 1.0 
        0.0951644400         0.1221141848
p   4 1.0 
       34.6972300000         1.3596652360
        7.9582620000         1.4512590746
        2.3780830000         1.2709231872
        0.8143321000         0.8025721831
p   1 1.0 
        0.2888755000         0.3018759228
p   1 1.0 
        0.1005682000         0.0807264648
d   1 1.0 
        1.0970000000         3.3522135855
d   1 1.0 
        0.3180000000         0.3838994974
f   1 1.0 
        0.7610000000         3.0840084332

  4 0
s   6 1.0 
    13575.3500000000         0.5435905009
     2035.2330000000         1.0145543008
      463.2256000000         1.7315731015
      131.2002000000         2.6910371555
       42.8530200000         3.6044547316
       15.5841900000         3.7025565440
s   2 1.0 
        6.2067140000         1.8383540114
        2.5764900000         0.5447576606
s   1 1.0 
        0.5769634000         0.4718145074
s   1 1.0 
        0.2297283000         0.2364944571
s   1 1.0 
        0.0951644400         0.1221141848
p   4 1.0 
       34.6972300000         1.3596652360
        7.9582620000         1.4512590746
        2.3780830000         1.2709231872
        0.8143321000         0.8025721831
p   1 1.0 
        0.2888755000         0.3018759228
p   1 1.0 
        0.1005682000         0.0807264648
d   1 1.0 
        1.0970000000         3.3522135855
d   1 1.0 
        0.3180000000         0.3838994974
f   1 1.0 
        0.7610000000         3.0840084332

  5 0
s   3 1.0 
       34.0613400000         0.2556298765
        5.1235750000         0.4613598729
        1.1646630000         0.6811216893
s   1 1.0 
        0.3272304000         0.3083545241
s   1 1.0 
        0.1030724000         0.1296483171
p   1 1.0 
        0.8000000000         1.0784563492

  6 0
s   3 1.0 
       34.0613400000         0.2556298765
        5.1235750000         0.4613598729
        1.1646630000         0.6811216893
s   1 1.0 
        0.3272304000         0.3083545241
s   1 1.0 
        0.1030724000         0.1296483171
p   1 1.0 
        0.8000000000         1.0784563492

  7 0
s   3 1.0 
       34.0613400000         0.2556298765
        5.1235750000         0.4613598729
        1.1646630000         0.6811216893
s   1 1.0 
        0.3272304000         0.3083545241
s   1 1.0 
        0.1030724000         0.1296483171
p   1 1.0 
        0.8000000000         1.0784563492

  8 0
s   3 1.0 
       34.0613400000         0.2556298765
        5.1235750000         0.4613598729
        1.1646630000         0.6811216893
s   1 1.0 
        0.3272304000         0.3083545241
s   1 1.0 
        0.1030724000         0.1296483171
p   1 1.0 
        0.8000000000         1.0784563492

  9 0
s   3 1.0 
       34.0613400000         0.2556298765
        5.1235750000         0.4613598729
        1.1646630000         0.6811216893
s   1 1.0 
        0.3272304000         0.3083545241
s   1 1.0 
        0.1030724000         0.1296483171
p   1 1.0 
        0.8000000000         1.0784563492

 10 0
s   3 1.0 
       34.0613400000         0.2556298765
        5.1235750000         0.4613598729
        1.1646630000         0.6811216893
s   1 1.0 
        0.3272304000         0.3083545241
s   1 1.0 
        0.1030724000         0.1296483171
p   1 1.0 
        0.8000000000         1.0784563492

[5D]
[7F]
[9G]
[MO]
 Sym=     1a
 Ene= -1.92182296233734E+01
 Spin= Alpha
 Occup= 2.000000
  1      -0.435384770100
  2      -0.639603820866
  3      -0.034917197002
  4       0.028812636319
  5      -0.010159654046
  6      -0.001530708689
  7       0.000027956952
  8       0.001416458168
  9       0.004610564235
 10      -0.000107826993
 11      -0.004230903665
 12      -0.000374262003
 13       0.000008435022
 14       0.000348198771
 15      -0.000062464948
 16       0.000267288432
 17      -0.000051892283
 18      -0.000159350207
 19      -0.000034572810
 20       0.000287365740
 21      -0.001289061047
 22       0.000124311076
 23       0.000728178435
 24       0.000050494999
 25       0.000046894447
 26       0.000105154564
 27       0.000004119073
 28      -0.000127668580
 29       0.000005049414
 30      -0.000054346161
 31       0.000008270965
 32      -0.000042945682
 33       0.000257493726
 34      -0.000761161326
 35      -0.004294500583
 36       0.001416612736
 37       0.000479496460
 38      -0.000011157287
 39      -0.000437448626
 40       0.006261625425
 41      -0.000162173044
 42      -0.005735856321
 43      -0.003777491743
 44       0.000091774713
 45       0.003442784432
 46      -0.000069894479
 47       0.000312982247
 48       0.000027658958
 49      -0.000174270350
 50       0.000042197211
 51      -0.000913011453
 52       0.003985671211
 53      -0.000760077660
 54      -0.002334209080
 55      -0.000480819736
 56       0.000035075012
 57       0.000017583558
 58       0.000195524536
 59       0.000000794856
 60      -0.000021219550
 61       0.000041029391
 62       0.000149297812
 63      -0.000017549610
 64       0.000084404738
 65      -0.000351897416
 66      -0.001168700924
 67       0.001878857408
 68       0.000050414854
 69       0.000069196274
 70      -0.000177049050
 71      -0.000141175660
 72       0.000962877011
 73      -0.000296905068
 74       0.000675208869
 75      -0.000556116132
 76       0.000036476261
 77      -0.000027634579
 78       0.000054233565
 79       0.000088532116
 80      -0.000000874247
 81       0.000030503404
 82      -0.000628836169
 83      -0.000236032437
 84      -0.000038683403
 85       0.000199911449
 86      -0.001107145623
 87      -0.000074411277
 88      -0.000029932055
 89       0.000067343196
 90       0.000020062906
 91      -0.000063500951
 92       0.000089156914
 93       0.000020061148
 94      -0.000017583237
 95       0.000084558951
 96      -0.000350516657
 97      -0.001164566435
 98       0.001849233033
 99       0.000175985911
100      -0.000077387502
101      -0.000036874431
102       0.000273389034
103      -0.000933324462
104       0.000238885383
105       0.000042836240
106       0.000543050819
107      -0.000667929108
108       0.000020909918
109       0.000048712682
110       0.000036122307
111      -0.000024345788
112       0.000087373150
113       0.000486417799
114      -0.000366803352
115      -0.001094940201
116      -0.000384313615
117       0.000071545999
118       0.000038931716
119      -0.000058252374
120       0.000052981309
121       0.000092961032
122       0.000048391230
123      -0.000028289317
124       0.000066244957
125      -0.000128455522
126      -0.001063592469
127       0.000165710814
128      -0.000095476452
129       0.000185084356
130      -0.000020376979
131      -0.000000027819
132       0.000495584325
133      -0.000362263275
134      -0.000134437856
135       0.000030745003
136       0.000131818917
137       0.000060377109
138       0.000890126536
139      -0.000413264484
140      -0.000073749164
141       0.000036989354
142       0.000197217189
143      -0.000129454136
144      -0.001071272325
145       0.000167851842
146       0.000010094610
147      -0.000178720112
148       0.000109207498
149       0.000055086719
150       0.000866594069
151      -0.000404740358
152      -0.000200756819
153      -0.000027930435
154       0.000067454052
155       0.000004996966
156       0.000547541427
157      -0.000355848662
158      -0.000143047027
159      -0.000013401407
160       0.000131403008
 Sym=     1a
 Ene= -1.03347732862634E+01
 Spin= Alpha
 Occup= 2.000000
  1       0.000084770253
  2       0.000357573409
  3      -0.003637668279
  4       0.014932140790
  5      -0.000091558904
  6      -0.000506420732
  7       0.000013158341
  8       0.000462466880
  9       0.006411113594
 10      -0.000165834680
 11      -0.005860531721
 12       0.000134374149
 13      -0.000005307368
 14      -0.000122263921
 15      -0.000020134120
 16       0.000005122634
 17      -0.000108245730
 18      -0.000041954428
 19      -0.000096473858
 20       0.000642530748
 21      -0.002669758515
 22       0.000505794979
 23       0.001613994478
 24       0.000317552800
 25       0.000131174220
 26       0.000341274017
 27      -0.000096088801
 28      -0.000432409368
 29       0.000031688947
 30      -0.000212371206
 31      -0.000052096607
 32      -0.467187190692
 33      -0.608419189383
 34      -0.038236149272
 35       0.023309851930
 36      -0.017932149163
 37       0.000764473767
 38      -0.000002188260
 39      -0.000742699359
 40       0.010949330330
 41      -0.000357795513
 42      -0.009924592075
 43      -0.004641861183
 44       0.000123884658
 45       0.004216524327
 46      -0.000274502218
 47       0.001739183114
 48       0.000540751100
 49      -0.000757173174
 50       0.000578918035
 51      -0.001658776954
 52       0.005368582958
 53      -0.003087140343
 54      -0.003911868526
 55      -0.002559562293
 56       0.000449402913
 57       0.001041553243
 58       0.000060182590
 59      -0.001276249792
 60       0.000053494225
 61      -0.000549071131
 62       0.000111918342
 63      -0.000572786517
 64      -0.000853081802
 65       0.000886008267
 66      -0.008261512908
 67       0.007691976117
 68      -0.000081117105
 69       0.000063251146
 70       0.000010521811
 71       0.001160744657
 72       0.002561724901
 73      -0.003842519000
 74       0.000412107518
 75      -0.001729859658
 76       0.002054878978
 77       0.000069940732
 78      -0.000033946845
 79      -0.000078168229
 80      -0.000035032907
 81       0.000039723813
 82      -0.000644395597
 83       0.000624168811
 84       0.000207350851
 85      -0.000108012740
 86      -0.000634003573
 87      -0.000023000783
 88       0.000101911102
 89      -0.000495277990
 90      -0.000612849947
 91       0.000065832854
 92       0.000006649901
 93      -0.000126506115
 94      -0.000604616470
 95      -0.000893855334
 96       0.000903993986
 97      -0.008424606318
 98       0.007743015427
 99      -0.000018446209
100      -0.000058721374
101       0.000082115089
102       0.003923184718
103      -0.002781557346
104      -0.000750656925
105      -0.001947950598
106       0.001805591933
107      -0.000566080376
108      -0.000067099087
109      -0.000016804712
110       0.000032022685
111       0.000038628398
112      -0.000082302412
113       0.000358514255
114       0.000497034250
115      -0.000638336388
116      -0.000627583200
117       0.000343364108
118       0.000173592334
119       0.000430272688
120      -0.000249798795
121      -0.000097826296
122       0.000057961733
123      -0.000439486307
124      -0.000408887838
125      -0.000005259872
126       0.000241429703
127      -0.000414124084
128      -0.000099929140
129      -0.000154976801
130       0.000313577055
131      -0.000022993995
132       0.000463315618
133      -0.000120780646
134       0.000031411522
135      -0.000120497347
136       0.000213590104
137       0.000034603781
138       0.000494052363
139       0.000390602479
140      -0.000039689959
141      -0.000190507748
142       0.000154702068
143      -0.000006537156
144       0.000231317480
145      -0.000430425607
146      -0.000316359513
147       0.000168385924
148       0.000072478964
149       0.000030742195
150       0.000507925820
151       0.000344327557
152      -0.000157528368
153       0.000198995423
154       0.000022025253
155      -0.000018666836
156       0.000469882545
157      -0.000071313728
158      -0.000209411821
159       0.000125547511
160      -0.000051382545
 Sym=     1a
 Ene= -1.02348532403153E+01
 Spin= Alpha
 Occup= 2.000000
  1      -0.000004689758
  2       0.000054716423
  3      -0.000623342743
  4       0.002626728552
  5      -0.000737616220
  6      -0.000113042632
  7       0.000114893695
  8      -0.000006784829
  9       0.000991854904
 10      -0.000786182178
 11      -0.000131835781
 12       0.000084339933
 13       0.000425099912
 14      -0.000461916517
 15       0.000019921440
 16       0.000005548571
 17      -0.000036252265
 18      -0.000025094286
 19       0.000014353906
 20      -0.000178042055
 21      -0.000016855824
 22       0.000191338219
 23       0.000136291711
 24      -0.000191991971
 25      -0.000001764162
 26      -0.000016072945
 27       0.000042743547
 28       0.000058383114
 29      -0.000005706621
 30       0.000008291008
 31       0.000014129575
 32       0.000674539455
 33       0.000786930024
 34       0.000007595825
 35      -0.002742865638
 36       0.009413968281
 37      -0.000319007702
 38       0.000415728494
 39      -0.000159168985
 40       0.002804903655
 41      -0.003707742526
 42       0.001362533268
 43       0.002893616489
 44      -0.004961057425
 45       0.002803011395
 46      -0.000034566835
 47      -0.000077729495
 48      -0.000063695754
 49       0.000028706068
 50      -0.000129663352
 51      -0.002574291741
 52       0.001723212617
 53       0.001363099780
 54       0.000109261990
 55      -0.002934839926
 56      -0.000089334431
 57      -0.000377093598
 58       0.000347276374
 59      -0.000163161928
 60      -0.000102460357
 61       0.000490460287
 62       0.000585529505
 63       0.000436095593
 64       0.000560462399
 65      -0.000471261264
 66       0.003649035978
 67       0.004005420690
 68      -0.000070259882
 69       0.000087215325
 70      -0.000045229933
 71       0.000977369698
 72      -0.002720380230
 73       0.001879382936
 74       0.001053263340
 75      -0.002128517907
 76       0.000435058278
 77       0.000008271095
 78      -0.000037653174
 79      -0.000050380358
 80      -0.000018508558
 81      -0.000029597062
 82       0.000257814722
 83       0.000749140351
 84      -0.000952729969
 85      -0.000705596938
 86       0.000068396392
 87      -0.000044060899
 88       0.000015285641
 89      -0.000069662503
 90      -0.000070160969
 91      -0.000070682595
 92       0.000073369959
 93      -0.000040335896
 94      -0.467082384868
 95      -0.608677882254
 96      -0.034417012312
 97       0.014085905699
 98      -0.032588642792
 99       0.000187767879
100      -0.000324443733
101       0.000148375139
102       0.000501922706
103      -0.000419762215
104      -0.000149098834
105       0.001867663643
106      -0.003074698971
107       0.000822587680
108      -0.000010559550
109       0.000072354357
110       0.000047815019
111      -0.000005517302
112       0.000032432212
113       0.000089257149
114      -0.000126434056
115      -0.000513155324
116      -0.000179115373
117      -0.000135231877
118       0.000552620019
119       0.000126154427
120       0.001269996109
121       0.000102465457
122      -0.000490795269
123       0.000254186868
124       0.000868829710
125       0.000070841948
126       0.000841258563
127       0.001037575888
128       0.000086934402
129      -0.000149745841
130       0.000060126373
131      -0.000024437858
132      -0.000215107288
133      -0.000155144041
134       0.000026199721
135      -0.000040293881
136      -0.000092057116
137      -0.000032034468
138      -0.000419136111
139      -0.000778245033
140       0.000042604738
141       0.000019401200
142      -0.000075678493
143       0.000454692074
144       0.001836225821
145       0.003754833947
146       0.000385744092
147       0.001238406465
148      -0.001376528485
149       0.000432675661
150       0.002749947509
151       0.005334560114
152      -0.001773882126
153      -0.000841676300
154      -0.000335423901
155       0.000435248672
156       0.002625203156
157       0.004984266425
158      -0.000275534555
159       0.000923738566
160       0.001741399494
 Sym=     1a
 Ene= -1.02295277730399E+01
 Spin= Alpha
 Occup= 2.000000
  1       0.000004688887
  2      -0.000054711419
  3       0.000623865165
  4      -0.002623988178
  5       0.000704502442
  6       0.000008515138
  7       0.000113037766
  8      -0.000115760487
  9      -0.000250211279
 10      -0.000761282439
 11       0.000995790750
 12      -0.000440985501
 13       0.000434979101
 14       0.000061760979
 15       0.000031858660
 16      -0.000012047167
 17      -0.000010059889
 18      -0.000001935427
 19       0.000037303528
 20      -0.000213983770
 21       0.000067396950
 22       0.000169249703
 23       0.000068776625
 24      -0.000211280589
 25       0.000015404551
 26       0.000041202011
 27      -0.000026482407
 28      -0.000020340554
 29       0.000006139160
 30      -0.000039801226
 31      -0.000034433273
 32      -0.000644033937
 33      -0.000747184243
 34      -0.000018165928
 35       0.002843669002
 36      -0.009390962430
 37      -0.000117217410
 38       0.000409742000
 39      -0.000340886809
 40       0.000986803191
 41      -0.003614030594
 42       0.002958742847
 43       0.002350692863
 44      -0.004893445030
 45       0.003192089168
 46      -0.000034875772
 47       0.000087028487
 48       0.000128224116
 49       0.000010430279
 50       0.000054804672
 51      -0.001732803950
 52      -0.001185850256
 53       0.002812029435
 54       0.002118458489
 55      -0.001771853671
 56      -0.000134884709
 57      -0.000137726120
 58      -0.000691694831
 59      -0.000575689092
 60       0.000035393735
 61       0.000093759977
 62      -0.000189266148
 63       0.467082503218
 64       0.608677953377
 65       0.034435163624
 66      -0.014173781511
 67       0.032436930265
 68       0.000077472389
 69      -0.000352562519
 70       0.000234097983
 71      -0.000187956021
 72      -0.000345791174
 73       0.000431954923
 74       0.000503259203
 75      -0.003032204475
 76       0.001964296904
 77      -0.000009347325
 78      -0.000071240343
 79      -0.000038984197
 80       0.000010975183
 81      -0.000049425996
 82       0.000190143700
 83       0.000095414894
 84       0.000208325727
 85       0.000040819926
 86       0.000493490305
 87      -0.000233206912
 88      -0.000247876713
 89      -0.001202225380
 90       0.000010448770
 91      -0.000261378743
 92      -0.000639332479
 93      -0.000973879116
 94       0.000435701159
 95       0.000575505680
 96       0.000535041140
 97      -0.003678974099
 98      -0.003852120972
 99      -0.000038507001
100       0.000084200356
101      -0.000079048791
102       0.001726565533
103      -0.002712897254
104       0.001247651032
105       0.000285219765
106      -0.002060900753
107       0.001176104804
108       0.000023471292
109       0.000035469477
110       0.000033861076
111       0.000002575080
112       0.000048171354
113       0.000616258419
114      -0.000861714746
115       0.000062715630
116       0.000244698084
117       0.000923391039
118      -0.000074058672
119      -0.000015503717
120       0.000036653954
121      -0.000043628422
122      -0.000082901721
123       0.000074497412
124       0.000042352040
125      -0.000455798152
126      -0.001841297964
127      -0.003764349060
128      -0.001350882704
129       0.001303201433
130       0.000249662964
131      -0.000434933481
132      -0.002605398450
133      -0.004935194885
134       0.001783719627
135       0.000838963789
136      -0.000176995128
137      -0.000432791408
138      -0.002736874622
139      -0.005334116907
140      -0.000249406472
141      -0.000880752429
142      -0.001763162791
143      -0.000072649510
144      -0.000860813972
145      -0.001046651236
146       0.000049309331
147      -0.000150015353
148       0.000103966845
149       0.000029720834
150       0.000382841962
151       0.000758872595
152      -0.000069046460
153       0.000024872705
154       0.000043093579
155       0.000027735855
156       0.000248921316
157       0.000133652064
158      -0.000095911466
159      -0.000032573931
160       0.000023233301
 Sym=     1a
 Ene= -1.10112255250611E+00
 Spin= Alpha
 Occup= 2.000000
  1       0.088971685308
  2       0.209635809787
  3      -0.301113143863
  4      -0.395527391218
  5      -0.119942701526
  6      -0.085582012529
  7       0.001920797489
  8       0.078689882196
  9      -0.064937785435
 10       0.001237019725
 11       0.059991689997
 12      -0.002511923919
 13       0.000037518530
 14       0.003309312228
 15      -0.001346720722
 16       0.005762750505
 17      -0.000585878972
 18      -0.003349737409
 19      -0.000198149953
 20      -0.002548996057
 21       0.013076962262
 22      -0.002110108704
 23      -0.007457732832
 24      -0.001727382365
 25      -0.000629620802
 26      -0.001686233924
 27       0.000312774399
 28       0.002109410379
 29      -0.000135395625
 30       0.000970213493
 31       0.000052969179
 32       0.057075331344
 33       0.120187294181
 34      -0.185313607867
 35      -0.152913356006
 36      -0.018447658858
 37       0.099648348929
 38      -0.002489966975
 39      -0.091369616090
 40       0.029033553211
 41      -0.000924298336
 42      -0.026481516276
 43       0.002079036868
 44      -0.002414165976
 45      -0.000715083036
 46      -0.003495390391
 47       0.017199265175
 48       0.000426154947
 49      -0.009187667629
 50       0.001210544918
 51      -0.000798327100
 52       0.006351900631
 53       0.005026267944
 54      -0.001211907640
 55       0.004619896260
 56       0.001571558851
 57       0.004644359319
 58      -0.002484226621
 59      -0.006050996773
 60       0.000519910775
 61      -0.003230555868
 62      -0.001630846268
 63       0.008262205630
 64       0.017112887102
 65      -0.026186338103
 66      -0.012850457886
 67       0.009635915529
 68       0.004601904162
 69       0.008424657319
 70      -0.013433216438
 71       0.003168223251
 72       0.000016430343
 73      -0.002517966299
 74      -0.001274155096
 75      -0.001544345655
 76       0.001037481028
 77      -0.000707417920
 78       0.000784736047
 79       0.000704244657
 80       0.000017447963
 81      -0.000443463745
 82      -0.000365475660
 83       0.001147691905
 84      -0.000797029694
 85      -0.000936199670
 86      -0.000402083650
 87       0.000014483550
 88       0.000786389639
 89       0.000228529570
 90      -0.000407142610
 91      -0.000321496473
 92      -0.000037449361
 93      -0.000223059789
 94       0.008359243566
 95       0.017322824152
 96      -0.026365460813
 97      -0.014018612867
 98       0.003995014077
 99       0.013572774839
100      -0.008928983165
101      -0.003191605872
102       0.003310618996
103      -0.000776625858
104      -0.002890126145
105       0.000359100887
106       0.000598560394
107       0.000887874564
108       0.000491249175
109       0.000624788778
110      -0.000392255127
111      -0.000602423707
112       0.000803368847
113      -0.000251618474
114       0.001222862728
115      -0.000668172549
116      -0.000923548523
117      -0.000482462127
118       0.000504976293
119       0.000101393469
120      -0.000056631162
121      -0.000622773728
122       0.000373615217
123      -0.000267204974
124       0.000364431507
125      -0.004944519895
126      -0.004911302642
127      -0.002047091425
128      -0.000560995568
129       0.001063219997
130      -0.000348214569
131      -0.002672591353
132      -0.003366800485
133      -0.000202808072
134       0.000576506516
135       0.000476201330
136      -0.000424666876
137      -0.002946020554
138      -0.003554899599
139      -0.002157462819
140       0.000088190610
141       0.000202868370
142      -0.000966021596
143      -0.005039321494
144      -0.004927465829
145      -0.001746104246
146       0.000280311870
147      -0.001050672816
148       0.000649186726
149      -0.003005378649
150      -0.003335263538
151      -0.001570779174
152       0.000911663064
153      -0.000188399154
154      -0.000003467334
155      -0.002785891565
156      -0.003244624267
157      -0.000312473331
158       0.000495493641
159      -0.000526299856
160      -0.000489379463
 Sym=     1a
 Ene= -8.06278451690055E-01
 Spin= Alpha
 Occup= 2.000000
  1      -0.030322564139
  2      -0.072199064178
  3       0.109998286197
  4       0.136904468178
  5       0.069332726907
  6      -0.005832363033
  7       0.001047466330
  8       0.004022814615
  9      -0.007663491324
 10       0.001120534545
 11       0.005750915380
 12      -0.009164505414
 13       0.000827582487
 14       0.006962480710
 15       0.000176749511
 16      -0.000348716020
 17       0.000282993468
 18       0.000292262703
 19       0.000266143018
 20      -0.000084342569
 21       0.000339836477
 22       0.000499960771
 23      -0.000141794742
 24       0.000975786601
 25      -0.000088642823
 26       0.000019064735
 27      -0.000172381910
 28       0.000003067668
 29      -0.000004426252
 30      -0.000016123072
 31      -0.000120042479
 32       0.044785917581
 33       0.095731235242
 34      -0.152109384048
 35      -0.151655194050
 36      -0.018569617159
 37      -0.098227169970
 38       0.005669647256
 39       0.086299140037
 40      -0.063629041490
 41       0.003866951599
 42       0.055698187451
 43      -0.003969934055
 44      -0.002536440062
 45       0.005801894226
 46       0.001861469134
 47      -0.004527433508
 48       0.004956427268
 49       0.004140861000
 50       0.004501779975
 51       0.002802577883
 52      -0.006514558124
 53       0.005140268493
 54       0.004812896601
 55       0.005125580236
 56      -0.000440010050
 57      -0.000341300025
 58      -0.002227416421
 59       0.000227291346
 60       0.000259394250
 61      -0.000395777645
 62      -0.001728164083
 63       0.056465912040
 64       0.120121803560
 65      -0.179771812102
 66      -0.210430358487
 67      -0.011432816732
 68      -0.011222242454
 69       0.031013080972
 70      -0.021306749489
 71      -0.011347028309
 72       0.028963475987
 73      -0.018609067994
 74      -0.002604980446
 75       0.001193243999
 76      -0.001428677914
 77      -0.000490067628
 78      -0.000699238837
 79       0.003112204324
 80       0.001662363015
 81       0.000615849307
 82      -0.001066959452
 83      -0.003428865031
 84       0.005825740504
 85       0.004676641687
 86       0.001593826869
 87       0.000993416893
 88      -0.000006935812
 89       0.003018008062
 90       0.001387561376
 91       0.001107842348
 92       0.000688463716
 93       0.002246924822
 94       0.061073168740
 95       0.129962851071
 96      -0.194758859075
 97      -0.226966533055
 98      -0.021546378561
 99       0.019291665613
100      -0.031090255240
101       0.014225055230
102       0.016373428268
103      -0.028396886292
104       0.013214521004
105       0.003342371699
106      -0.004052871001
107       0.004084550340
108       0.001469309498
109      -0.000891092262
110       0.000900034766
111       0.000550387847
112       0.002980886361
113       0.003841584626
114      -0.003733154304
115       0.002453633563
116       0.002167569624
117       0.005407978537
118       0.000244203930
119      -0.000378069246
120       0.003097300534