
                                 *****************
                                 * O   R   C   A *
                                 *****************

           --- An Ab Initio, DFT and Semiempirical electronic structure package ---

                  #######################################################
                  #                        -***-                        #
                  #          Department of theory and spectroscopy      #
                  #               Directorship: Frank Neese             #
                  #        Max Planck Institute fuer Kohlenforschung    #
                  #                Kaiser Wilhelm Platz 1               #
                  #                 D-45470 Muelheim/Ruhr               #
                  #                      Germany                        #
                  #                                                     #
                  #                  All rights reserved                #
                  #                        -***-                        #
                  #######################################################


                         Program Version 4.2.1 -  RELEASE  -


 With contributions from (in alphabetic order):
   Daniel Aravena         : Magnetic Suceptibility
   Michael Atanasov       : Ab Initio Ligand Field Theory (pilot matlab implementation)
   Alexander A. Auer      : GIAO ZORA, VPT2
   Ute Becker             : Parallelization
   Giovanni Bistoni       : ED, misc. LED, open-shell LED, HFLD
   Martin Brehm           : Molecular dynamics
   Dmytro Bykov           : SCF Hessian
   Vijay G. Chilkuri      : MRCI spin determinant printing, contributions to CSF-ICE
   Dipayan Datta          : RHF DLPNO-CCSD density
   Achintya Kumar Dutta   : EOM-CC, STEOM-CC
   Dmitry Ganyushin       : Spin-Orbit,Spin-Spin,Magnetic field MRCI
   Miquel Garcia          : C-PCM Hessian, Gaussian charge scheme
   Yang Guo               : DLPNO-NEVPT2, CIM, IAO-localization
   Andreas Hansen         : Spin unrestricted coupled pair/coupled cluster methods
   Benjamin Helmich-Paris : CASSCF linear response (MC-RPA)
   Lee Huntington         : MR-EOM, pCC
   Robert Izsak           : Overlap fitted RIJCOSX, COSX-SCS-MP3, EOM
   Christian Kollmar      : KDIIS, OOCD, Brueckner-CCSD(T), CCSD density
   Simone Kossmann        : Meta GGA functionals, TD-DFT gradient, OOMP2, MP2 Hessian
   Martin Krupicka        : AUTO-CI
   Lucas Lang             : DCDCAS
   Dagmar Lenk            : GEPOL surface, SMD
   Dimitrios Liakos       : Extrapolation schemes; Compound Job, initial MDCI parallelization
   Dimitrios Manganas     : Further ROCIS development; embedding schemes
   Dimitrios Pantazis     : SARC Basis sets
   Taras Petrenko         : DFT Hessian,TD-DFT gradient, ASA, ECA, R-Raman, ABS, FL, XAS/XES, NRVS
   Peter Pinski           : DLPNO-MP2, DLPNO-MP2 Gradient
   Christoph Reimann      : Effective Core Potentials
   Marius Retegan         : Local ZFS, SOC
   Christoph Riplinger    : Optimizer, TS searches, QM/MM, DLPNO-CCSD(T), (RO)-DLPNO pert. Triples
   Tobias Risthaus        : Range-separated hybrids, TD-DFT gradient, RPA, STAB
   Michael Roemelt        : Original ROCIS implementation
   Masaaki Saitow         : Open-shell DLPNO-CCSD energy and density
   Barbara Sandhoefer     : DKH picture change effects
   Avijit Sen             : IP-ROCIS
   Kantharuban Sivalingam : CASSCF convergence, NEVPT2, FIC-MRCI
   Bernardo de Souza      : ESD, SOC TD-DFT
   Georgi Stoychev        : AutoAux, RI-MP2 NMR
   Willem Van den Heuvel  : Paramagnetic NMR
   Boris Wezisla          : Elementary symmetry handling
   Frank Wennmohs         : Technical directorship


 We gratefully acknowledge several colleagues who have allowed us to
 interface, adapt or use parts of their codes:
   Stefan Grimme, W. Hujo, H. Kruse,             : VdW corrections, initial TS optimization,
                  C. Bannwarth                     DFT functionals, gCP, sTDA/sTD-DF
   Ed Valeev, F. Pavosevic, A. Kumar             : LibInt (2-el integral package), F12 methods
   Garnet Chan, S. Sharma, J. Yang, R. Olivares  : DMRG
   Ulf Ekstrom                                   : XCFun DFT Library
   Mihaly Kallay                                 : mrcc  (arbitrary order and MRCC methods)
   Andreas Klamt, Michael Diedenhofen            : otool_cosmo (COSMO solvation model)
   Jiri Pittner, Ondrej Demel                    : Mk-CCSD
   Frank Weinhold                                : gennbo (NPA and NBO analysis)
   Christopher J. Cramer and Donald G. Truhlar   : smd solvation model
   Lars Goerigk                                  : TD-DFT with DH, B97 family of functionals
   V. Asgeirsson, H. Jonsson                     : NEB implementation
   FAccTs GmbH                                   : IRC, NEB, NEB-TS, Multilevel, MM, QM/MM, CI optimization
   S Lehtola, MJT Oliveira, MAL Marques          : LibXC Library


 Your calculation uses the libint2 library for the computation of 2-el integrals
 For citations please refer to: http://libint.valeyev.net

 Your ORCA version has been built with support for libXC version: 4.2.3
 For citations please refer to: https://tddft.org/programs/libxc/

 This ORCA versions uses:
   CBLAS   interface :  Fast vector & matrix operations
   LAPACKE interface :  Fast linear algebra routines
   SCALAPACK package :  Parallel linear algebra routines



Reading of a custom basis requested
Basis file         : system.bas
READING GTO-BASIS: OXYGEN
READING GTO-BASIS: CARBON
READING GTO-BASIS: HYDROGEN
Basis successfully read

Reading of a custom AuxJ basis requested
Basis file: system.aux
READING GTO-BASIS: OXYGEN
READING GTO-BASIS: CARBON
READING GTO-BASIS: HYDROGEN
Basis read successfully!

----- Orbital basis set information -----
----- AuxJ basis set information -----
================================================================================
                                        WARNINGS
                       Please study these warnings very carefully!
================================================================================


INFO   : the flag for use of LIBINT has been found!

================================================================================
                                       INPUT FILE
================================================================================
NAME = temp.inp
|  1> * xyz  0 1
|  2>   O    0.026670    9.371026    2.499254
|  3>   C    0.915964    9.348537    1.685390
|  4>   C    0.980951   10.340791    0.553617
|  5>   C    2.020454    8.325550    1.744480
|  6>   H    0.214299   11.102804    0.679264
|  7>   H    1.969384   10.805620    0.499304
|  8>   H    0.823045    9.821552   -0.397095
|  9>   H    1.816593    7.600415    2.529778
| 10>   H    2.973057    8.823939    1.947578
| 11>   H    2.128959    7.818379    0.781781
| 12> * 
| 13> 
| 14> %pal
| 15> nprocs 26
| 16> end
| 17> 
| 18> %basis
| 19> GTOName ="system.bas";
| 20> GTOAuxName ="system.aux";
| 21> end
| 22>  
| 23> 
| 24> %pointcharges "background.crg"
| 25> ! DFT PBE0 TightSCF  
| 26> 
| 27> 
| 28>                          ****END OF INPUT****
================================================================================

                       ****************************
                       * Single Point Calculation *
                       ****************************

---------------------------------
CARTESIAN COORDINATES (ANGSTROEM)
---------------------------------
  O      0.026670    9.371026    2.499254
  C      0.915964    9.348537    1.685390
  C      0.980951   10.340791    0.553617
  C      2.020454    8.325550    1.744480
  H      0.214299   11.102804    0.679264
  H      1.969384   10.805620    0.499304
  H      0.823045    9.821552   -0.397095
  H      1.816593    7.600415    2.529778
  H      2.973057    8.823939    1.947578
  H      2.128959    7.818379    0.781781

----------------------------
CARTESIAN COORDINATES (A.U.)
----------------------------
  NO LB      ZA    FRAG     MASS         X           Y           Z
   0 O     8.0000    0    15.999    0.050399   17.708673    4.722906
   1 C     6.0000    0    12.011    1.730921   17.666175    3.184926
   2 C     6.0000    0    12.011    1.853729   19.541263    1.046185
   3 C     6.0000    0    12.011    3.818105   15.733009    3.296589
   4 H     1.0000    0     1.008    0.404966   20.981259    1.283623
   5 H     1.0000    0     1.008    3.721596   20.419663    0.943548
   6 H     1.0000    0     1.008    1.555330   18.560043   -0.750401
   7 H     1.0000    0     1.008    3.432863   14.362703    4.780588
   8 H     1.0000    0     1.008    5.618264   16.674828    3.680389
   9 H     1.0000    0     1.008    4.023149   14.774595    1.477352

--------------------------------
INTERNAL COORDINATES (ANGSTROEM)
--------------------------------
 O      0   0   0     0.000000000000     0.00000000     0.00000000
 C      1   0   0     1.205704849477     0.00000000     0.00000000
 C      2   1   0     1.506552831538   121.77751005     0.00000000
 C      2   1   3     1.506616139024   121.79620496   180.09350915
 H      3   2   1     1.088212419467   110.12498936     7.24839853
 H      3   2   1     1.093625025637   110.86913689   129.44073386
 H      3   2   1     1.094713090678   109.49936238   247.01700102
 H      4   2   1     1.088151195538   110.08659600     6.00347675
 H      4   2   1     1.094117392483   109.64917903   245.55770980
 H      4   2   1     1.093519603330   110.67885846   128.04341907

---------------------------
INTERNAL COORDINATES (A.U.)
---------------------------
 O      0   0   0     0.000000000000     0.00000000     0.00000000
 C      1   0   0     2.278451963853     0.00000000     0.00000000
 C      2   1   0     2.846972257890   121.77751005     0.00000000
 C      2   1   3     2.847091891702   121.79620496   180.09350915
 H      3   2   1     2.056423448324   110.12498936     7.24839853
 H      3   2   1     2.066651791656   110.86913689   129.44073386
 H      3   2   1     2.068707936599   109.49936238   247.01700102
 H      4   2   1     2.056307751865   110.08659600     6.00347675
 H      4   2   1     2.067582230153   109.64917903   245.55770980
 H      4   2   1     2.066452572368   110.67885846   128.04341907

---------------------
BASIS SET INFORMATION
---------------------
There are 3 groups of distinct atoms

 Group   1 Type O   : 11s6p2d1f contracted to 5s3p2d1f pattern {62111/411/11/1}
 Group   2 Type C   : 11s6p2d1f contracted to 5s3p2d1f pattern {62111/411/11/1}
 Group   3 Type H   : 5s1p contracted to 3s1p pattern {311/1}

Atom   0O    basis set group =>   1
Atom   1C    basis set group =>   2
Atom   2C    basis set group =>   2
Atom   3C    basis set group =>   2
Atom   4H    basis set group =>   3
Atom   5H    basis set group =>   3
Atom   6H    basis set group =>   3
Atom   7H    basis set group =>   3
Atom   8H    basis set group =>   3
Atom   9H    basis set group =>   3
---------------------------------
AUXILIARY/J BASIS SET INFORMATION
---------------------------------
There are 3 groups of distinct atoms

 Group   1 Type O   : 8s6p5d3f1g contracted to 8s6p4d3f1g pattern {11111111/111111/2111/111/1}
 Group   2 Type C   : 8s6p5d3f1g contracted to 8s6p4d3f1g pattern {11111111/111111/2111/111/1}
 Group   3 Type H   : 4s3p2d contracted to 4s2p1d pattern {1111/21/2}

Atom   0O    basis set group =>   1
Atom   1C    basis set group =>   2
Atom   2C    basis set group =>   2
Atom   3C    basis set group =>   2
Atom   4H    basis set group =>   3
Atom   5H    basis set group =>   3
Atom   6H    basis set group =>   3
Atom   7H    basis set group =>   3
Atom   8H    basis set group =>   3
Atom   9H    basis set group =>   3

Checking for AutoStart:
The File: temp.gbw exists
Trying to determine its content:
     ... Fine, the file contains calculation information
     ... Fine, the calculation information was read
     ... Fine, the file contains a basis set
     ... Fine, the basis set was read
     ... Fine, the file contains a geometry
     ... Fine, the geometry was read
     ... Fine, the file contains a set of orbitals
     ... Fine, the orbitals can be read
     => possible old guess file was deleted
     => GBW file was renamed to GES file
     => GES file is set as startup file
     => Guess is set to MORead
     ... now leaving AutoStart



           ************************************************************
           *        Program running with 26 parallel MPI-processes    *
           *              working on a common directory               *
           ************************************************************
------------------------------------------------------------------------------
                           ORCA GTO INTEGRAL CALCULATION
------------------------------------------------------------------------------

                         BASIS SET STATISTICS AND STARTUP INFO

 # of primitive gaussian shells          ...  116
 # of primitive gaussian functions       ...  232
 # of contracted shells                  ...   68
 # of contracted basis functions         ...  160
 Highest angular momentum                ...    3
 Maximum contraction depth               ...    6
 Integral package used                   ... LIBINT
 Integral threshhold            Thresh   ...  2.500e-11
 Primitive cut-off              TCut     ...  2.500e-12


------------------------------ INTEGRAL EVALUATION ----------------------------


 * One electron integrals 
 Pre-screening matrix                    ... done
 Shell pair data                         ... done (   0.001 sec)

ENUC WAS=  0.000000000


           ************************************************************
           *        Program running with 26 parallel MPI-processes    *
           *              working on a common directory               *
           ************************************************************
------------------------------------------------------------------------------
                            ORCA POINT-CHARGE CORRECTION
------------------------------------------------------------------------------

BaseName                           ... temp
Point charge file                  ... background.crg

Reading the GBW file               ... done
Reading the one-electron matrix    ... done
Reading the point charges          ... done
Number of point charges            ... 918
Reading the nuclear-repulsion      ... done
Charge-Nuclei interaction          ... done
The nuclear repulsion file was updated
Doing the point charge correction  ... done
Storing the one-electron matrix    ... done

ENUC IS = 120.405168148


           ************************************************************
           *        Program running with 26 parallel MPI-processes    *
           *              working on a common directory               *
           ************************************************************
-------------------------------------------------------------------------------
                                 ORCA SCF
-------------------------------------------------------------------------------

------------
SCF SETTINGS
------------
Hamiltonian:
 Density Functional     Method          .... DFT(GTOs)
 Exchange Functional    Exchange        .... PBE
   PBE kappa parameter   XKappa         ....  0.804000
   PBE mue parameter    XMuePBE         ....  0.219520
 Correlation Functional Correlation     .... PBE
   PBE beta parameter  CBetaPBE         ....  0.066725
 LDA part of GGA corr.  LDAOpt          .... PW91-LDA
 Gradients option       PostSCFGGA      .... off
 Hybrid DFT is turned on
   Fraction HF Exchange ScalHFX         ....  0.250000
   Scaling of DF-GGA-X  ScalDFX         ....  0.750000
   Scaling of DF-GGA-C  ScalDFC         ....  1.000000
   Scaling of DF-LDA-C  ScalLDAC        ....  1.000000
   Perturbative correction              ....  0.000000
   Density functional embedding theory  .... OFF
   NL short-range parameter             ....  6.900000


General Settings:
 Integral files         IntName         .... temp
 Hartree-Fock type      HFTyp           .... RHF
 Total Charge           Charge          ....    0
 Multiplicity           Mult            ....    1
 Number of Electrons    NEL             ....   32
 Basis Dimension        Dim             ....  160
 Nuclear Repulsion      ENuc            ....    120.4051681479 Eh

Convergence Acceleration:
 DIIS                   CNVDIIS         .... on
   Start iteration      DIISMaxIt       ....    12
   Startup error        DIISStart       ....  0.200000
   # of expansion vecs  DIISMaxEq       ....     5
   Bias factor          DIISBfac        ....   1.050
   Max. coefficient     DIISMaxC        ....  10.000
 Newton-Raphson         CNVNR           .... off
 SOSCF                  CNVSOSCF        .... on
   Start iteration      SOSCFMaxIt      ....   150
   Startup grad/error   SOSCFStart      ....  0.003300
 Level Shifting         CNVShift        .... on
   Level shift para.    LevelShift      ....    0.2500
   Turn off err/grad.   ShiftErr        ....    0.0010
 Zerner damping         CNVZerner       .... off
 Static damping         CNVDamp         .... on
   Fraction old density DampFac         ....    0.7000
   Max. Damping (<1)    DampMax         ....    0.9800
   Min. Damping (>=0)   DampMin         ....    0.0000
   Turn off err/grad.   DampErr         ....    0.1000
 Fernandez-Rico         CNVRico         .... off

SCF Procedure:
 Maximum # iterations   MaxIter         ....   125
 SCF integral mode      SCFMode         .... Direct
   Integral package                     .... LIBINT
 Reset frequency        DirectResetFreq ....    20
 Integral Threshold     Thresh          ....  2.500e-11 Eh
 Primitive CutOff       TCut            ....  2.500e-12 Eh

Convergence Tolerance:
 Convergence Check Mode ConvCheckMode   .... Total+1el-Energy
 Convergence forced     ConvForced      .... 0
 Energy Change          TolE            ....  1.000e-08 Eh
 1-El. energy change                    ....  1.000e-05 Eh
 Orbital Gradient       TolG            ....  1.000e-05
 Orbital Rotation angle TolX            ....  1.000e-05
 DIIS Error             TolErr          ....  5.000e-07


Diagonalization of the overlap matrix:
Smallest eigenvalue                        ... 3.783e-04
Time for diagonalization                   ...    0.005 sec
Threshold for overlap eigenvalues          ... 1.000e-08
Number of eigenvalues below threshold      ... 0
Time for construction of square roots      ...    0.004 sec
Total time needed                          ...    0.009 sec

---------------------
INITIAL GUESS: MOREAD
---------------------
Guess MOs are being read from file: temp.ges
Input Geometry matches current geometry (good)
Input basis set matches current basis set (good)
MOs were renormalized
MOs were reorthogonalized (Cholesky)
                      ------------------
                      INITIAL GUESS DONE (   0.0 sec)
                      ------------------
-------------------
DFT GRID GENERATION
-------------------

General Integration Accuracy     IntAcc      ...  4.340
Radial Grid Type                 RadialGrid  ... Gauss-Chebyshev
Angular Grid (max. acc.)         AngularGrid ... Lebedev-110
Angular grid pruning method      GridPruning ... 3 (G Style)
Weight generation scheme         WeightScheme... Becke
Basis function cutoff            BFCut       ...    1.0000e-11
Integration weight cutoff        WCut        ...    1.0000e-14
Grids for H and He will be reduced by one unit

# of grid points (after initial pruning)     ...  11448 (   0.0 sec)
# of grid points (after weights+screening)   ...  10880 (   0.0 sec)
nearest neighbour list constructed           ...    0.0 sec
Grid point re-assignment to atoms done       ...    0.0 sec
Grid point division into batches done        ...    0.0 sec
Reduced shell lists constructed in    0.0 sec

Total number of grid points                  ...    10880
Total number of batches                      ...      175
Average number of points per batch           ...       62
Average number of grid points per atom       ...     1088
Average number of shells per batch           ...    29.12 (42.83%)
Average number of basis functions per batch  ...    67.12 (41.95%)
Average number of large shells per batch     ...    20.75 (71.24%)
Average number of large basis fcns per batch ...    46.50 (69.27%)
Maximum spatial batch extension              ...  16.69, 17.18, 16.35 au
Average spatial batch extension              ...   0.45,  0.49,  0.42 au

Time for grid setup =    0.023 sec

--------------
SCF ITERATIONS
--------------
ITER       Energy         Delta-E        Max-DP      RMS-DP      [F,P]     Damp
               ***  Starting incremental Fock matrix formation  ***
                      *** Initiating the SOSCF procedure ***
                      *** Re-Reading the Fockian *** 
                      *** Removing any level shift *** 
ITER      Energy       Delta-E        Grad      Rot      Max-DP    RMS-DP
  0   -193.02500311 -193.0250031067  0.000000  0.000000  0.000001  0.000000
               *** Restarting incremental Fock matrix formation ***
                 **** Energy Check signals convergence ****
              ***Rediagonalizing the Fockian in SOSCF/NRSCF***

               *****************************************************
               *                     SUCCESS                       *
               *           SCF CONVERGED AFTER   1 CYCLES          *
               *****************************************************

Setting up the final grid:

General Integration Accuracy     IntAcc      ...  4.670
Radial Grid Type                 RadialGrid  ... Gauss-Chebyshev
Angular Grid (max. acc.)         AngularGrid ... Lebedev-302
Angular grid pruning method      GridPruning ... 3 (G Style)
Weight generation scheme         WeightScheme... Becke
Basis function cutoff            BFCut       ...    1.0000e-11
Integration weight cutoff        WCut        ...    1.0000e-14
Grids for H and He will be reduced by one unit

# of grid points (after initial pruning)     ...  45212 (   0.0 sec)
# of grid points (after weights+screening)   ...  42649 (   0.0 sec)
nearest neighbour list constructed           ...    0.0 sec
Grid point re-assignment to atoms done       ...    0.0 sec
Grid point division into batches done        ...    0.2 sec
Reduced shell lists constructed in    0.2 sec

Total number of grid points                  ...    42649
Total number of batches                      ...      671
Average number of points per batch           ...       63
Average number of grid points per atom       ...     4265
Average number of shells per batch           ...    20.52 (30.17%)
Average number of basis functions per batch  ...    44.96 (28.10%)
Average number of large shells per batch     ...    13.89 (67.69%)
Average number of large basis fcns per batch ...    28.41 (63.18%)
Maximum spatial batch extension              ...  15.15, 15.30, 15.65 au
Average spatial batch extension              ...   0.29,  0.31,  0.30 au

Final grid set up in    0.2 sec
Final integration                            ... done (   0.0 sec)
Change in XC energy                          ...    -0.000147713
Integrated number of electrons               ...    31.999942336
Previous integrated no of electrons          ...    31.997822271

----------------
TOTAL SCF ENERGY
----------------

Total Energy       :         -193.02515082 Eh           -5252.48138 eV

Components:
Nuclear Repulsion  :          120.40516815 Eh            3276.39119 eV
Electronic Energy  :         -313.43031897 Eh           -8528.87258 eV
One Electron Energy:         -499.00995608 Eh          -13578.75124 eV
Two Electron Energy:          185.57963711 Eh            5049.87866 eV

Virial components:
Potential Energy   :         -385.14366965 Eh          -10480.29206 eV
Kinetic Energy     :          192.11851883 Eh            5227.81067 eV
Virial Ratio       :            2.00471913


DFT components:
N(Alpha)           :       15.999971168117 electrons
N(Beta)            :       15.999971168117 electrons
N(Total)           :       31.999942336234 electrons
E(X)               :      -19.371436465729 Eh       
E(C)               :       -1.042267261462 Eh       
E(XC)              :      -20.413703727190 Eh       
DFET-embed. en.    :        0.000000000000 Eh       

---------------
SCF CONVERGENCE
---------------

  Last Energy change         ...   -8.9528e-12  Tolerance :   1.0000e-08
  Last MAX-Density change    ...    6.7372e-07  Tolerance :   1.0000e-07
  Last RMS-Density change    ...    1.9747e-08  Tolerance :   5.0000e-09
  Last Orbital Gradient      ...    2.2904e-07  Tolerance :   1.0000e-05
  Last Orbital Rotation      ...    4.9927e-07  Tolerance :   1.0000e-05

             **** THE GBW FILE WAS UPDATED (temp.gbw) ****
             **** DENSITY FILE WAS UPDATED (temp.scfp) ****
             **** ENERGY FILE WAS UPDATED (temp.en.tmp) ****
             **** THE GBW FILE WAS UPDATED (temp.gbw) ****
             **** DENSITY FILE WAS UPDATED (temp.scfp) ****
----------------
ORBITAL ENERGIES
----------------

  NO   OCC          E(Eh)            E(eV) 
   0   2.0000     -19.218230      -522.9546 
   1   2.0000     -10.334773      -281.2235 
   2   2.0000     -10.234853      -278.5045 
   3   2.0000     -10.229528      -278.3596 
   4   2.0000      -1.101123       -29.9631 
   5   2.0000      -0.806278       -21.9400 
   6   2.0000      -0.742200       -20.1963 
   7   2.0000      -0.568708       -15.4753 
   8   2.0000      -0.494108       -13.4454 
   9   2.0000      -0.491191       -13.3660 
  10   2.0000      -0.489233       -13.3127 
  11   2.0000      -0.426953       -11.6180 
  12   2.0000      -0.422194       -11.4885 
  13   2.0000      -0.400134       -10.8882 
  14   2.0000      -0.388911       -10.5828 
  15   2.0000      -0.288894        -7.8612 
  16   0.0000      -0.030488        -0.8296 
  17   0.0000       0.039725         1.0810 
  18   0.0000       0.089617         2.4386 
  19   0.0000       0.106935         2.9098 
  20   0.0000       0.113853         3.0981 
  21   0.0000       0.132689         3.6106 
  22   0.0000       0.137580         3.7437 
  23   0.0000       0.140540         3.8243 
  24   0.0000       0.154496         4.2041 
  25   0.0000       0.194325         5.2879 
  26   0.0000       0.202019         5.4972 
  27   0.0000       0.221304         6.0220 
  28   0.0000       0.227355         6.1866 
  29   0.0000       0.295745         8.0476 
  30   0.0000       0.301602         8.2070 
  31   0.0000       0.304561         8.2875 
  32   0.0000       0.360803         9.8179 
  33   0.0000       0.367197         9.9919 
  34   0.0000       0.400621        10.9015 
  35   0.0000       0.406216        11.0537 
  36   0.0000       0.414788        11.2869 
  37   0.0000       0.437252        11.8982 
  38   0.0000       0.443304        12.0629 
  39   0.0000       0.460954        12.5432 
  40   0.0000       0.472153        12.8479 
  41   0.0000       0.495646        13.4872 
  42   0.0000       0.527109        14.3434 
  43   0.0000       0.566165        15.4061 
  44   0.0000       0.579647        15.7730 
  45   0.0000       0.609106        16.5746 
  46   0.0000       0.657386        17.8884 
  47   0.0000       0.663757        18.0617 
  48   0.0000       0.712212        19.3803 
  49   0.0000       0.781987        21.2790 
  50   0.0000       0.819596        22.3023 
  51   0.0000       0.829405        22.5693 
  52   0.0000       0.900571        24.5058 
  53   0.0000       0.937112        25.5001 
  54   0.0000       0.974036        26.5049 
  55   0.0000       0.980204        26.6727 
  56   0.0000       0.997421        27.1412 
  57   0.0000       1.051718        28.6187 
  58   0.0000       1.103197        30.0195 
  59   0.0000       1.106024        30.0964 
  60   0.0000       1.129344        30.7310 
  61   0.0000       1.223613        33.2962 
  62   0.0000       1.373021        37.3618 
  63   0.0000       1.402103        38.1532 
  64   0.0000       1.437484        39.1159 
  65   0.0000       1.495746        40.7013 
  66   0.0000       1.501684        40.8629 
  67   0.0000       1.515619        41.2421 
  68   0.0000       1.518783        41.3282 
  69   0.0000       1.531352        41.6702 
  70   0.0000       1.557606        42.3846 
  71   0.0000       1.564351        42.5682 
  72   0.0000       1.580211        42.9997 
  73   0.0000       1.624191        44.1965 
  74   0.0000       1.646447        44.8021 
  75   0.0000       1.700696        46.2783 
  76   0.0000       1.839832        50.0644 
  77   0.0000       1.864351        50.7316 
  78   0.0000       1.870292        50.8932 
  79   0.0000       1.950103        53.0650 
  80   0.0000       1.992867        54.2287 
  81   0.0000       2.020236        54.9734 
  82   0.0000       2.036533        55.4169 
  83   0.0000       2.082178        56.6589 
  84   0.0000       2.109925        57.4140 
  85   0.0000       2.151203        58.5372 
  86   0.0000       2.162264        58.8382 
  87   0.0000       2.195620        59.7459 
  88   0.0000       2.206726        60.0481 
  89   0.0000       2.322449        63.1970 
  90   0.0000       2.344248        63.7902 
  91   0.0000       2.345927        63.8359 
  92   0.0000       2.390620        65.0521 
  93   0.0000       2.446657        66.5769 
  94   0.0000       2.462683        67.0130 
  95   0.0000       2.513280        68.3898 
  96   0.0000       2.524272        68.6889 
  97   0.0000       2.555211        69.5308 
  98   0.0000       2.557726        69.5993 
  99   0.0000       2.650937        72.1357 
 100   0.0000       2.694249        73.3142 
 101   0.0000       2.748599        74.7932 
 102   0.0000       2.782376        75.7123 
 103   0.0000       2.803926        76.2987 
 104   0.0000       2.842684        77.3534 
 105   0.0000       2.899378        78.8961 
 106   0.0000       2.963730        80.6472 
 107   0.0000       2.972009        80.8725 
 108   0.0000       2.990957        81.3881 
 109   0.0000       3.063690        83.3672 
 110   0.0000       3.067475        83.4702 
 111   0.0000       3.090070        84.0851 
 112   0.0000       3.103746        84.4572 
 113   0.0000       3.119207        84.8779 
 114   0.0000       3.135900        85.3322 
 115   0.0000       3.222581        87.6909 
 116   0.0000       3.283388        89.3455 
 117   0.0000       3.295270        89.6688 
 118   0.0000       3.307720        90.0076 
 119   0.0000       3.366343        91.6028 
 120   0.0000       3.376713        91.8850 
 121   0.0000       3.415319        92.9356 
 122   0.0000       3.444676        93.7344 
 123   0.0000       3.484661        94.8224 
 124   0.0000       3.518313        95.7382 
 125   0.0000       3.537074        96.2487 
 126   0.0000       3.668509        99.8252 
 127   0.0000       3.759184       102.2926 
 128   0.0000       3.853952       104.8714 
 129   0.0000       3.858647       104.9991 
 130   0.0000       3.894003       105.9612 
 131   0.0000       3.971954       108.0824 
 132   0.0000       3.978550       108.2618 
 133   0.0000       4.002275       108.9075 
 134   0.0000       4.057476       110.4095 
 135   0.0000       4.318738       117.5188 
 136   0.0000       4.360291       118.6496 
 137   0.0000       4.380028       119.1866 
 138   0.0000       4.395466       119.6067 
 139   0.0000       4.439216       120.7972 
 140   0.0000       4.520720       123.0150 
 141   0.0000       4.657125       126.7268 
 142   0.0000       4.764472       129.6479 
 143   0.0000       4.780783       130.0917 
 144   0.0000       5.179633       140.9450 
 145   0.0000       5.183669       141.0548 
 146   0.0000       5.592846       152.1891 
 147   0.0000       5.675626       154.4416 
 148   0.0000       6.143201       167.1650 
 149   0.0000       6.335486       172.3973 
 150   0.0000       6.379885       173.6055 
 151   0.0000       6.504403       176.9938 
 152   0.0000       6.531524       177.7318 
 153   0.0000       6.796575       184.9442 
 154   0.0000       6.981748       189.9830 
 155   0.0000       7.061885       192.1637 
 156   0.0000      22.384450       609.1119 
 157   0.0000      22.399473       609.5206 
 158   0.0000      23.039152       626.9272 
 159   0.0000      43.900866      1194.6033 

                    ********************************
                    * MULLIKEN POPULATION ANALYSIS *
                    ********************************

-----------------------
MULLIKEN ATOMIC CHARGES
-----------------------
   0 O :   -0.411210
   1 C :    0.246483
   2 C :   -0.318876
   3 C :   -0.344102
   4 H :    0.137943
   5 H :    0.153772
   6 H :    0.127786
   7 H :    0.147647
   8 H :    0.145322
   9 H :    0.115234
Sum of atomic charges:   -0.0000000

--------------------------------
MULLIKEN REDUCED ORBITAL CHARGES
--------------------------------
  0 O s       :     3.751700  s :     3.751700
      pz      :     1.484471  p :     4.627472
      px      :     1.474469
      py      :     1.668532
      dz2     :     0.007943  d :     0.030097
      dxz     :     0.007818
      dyz     :     0.004376
      dx2y2   :     0.004865
      dxy     :     0.005094
      f0      :     0.000249  f :     0.001942
      f+1     :     0.000528
      f-1     :     0.000085
      f+2     :     0.000363
      f-2     :     0.000360
      f+3     :     0.000160
      f-3     :     0.000198
  1 C s       :     3.160830  s :     3.160830
      pz      :     0.767933  p :     2.370846
      px      :     0.765105
      py      :     0.837807
      dz2     :     0.054092  d :     0.203691
      dxz     :     0.034535
      dyz     :     0.037138
      dx2y2   :     0.036427
      dxy     :     0.041499
      f0      :     0.002863  f :     0.018150
      f+1     :     0.003508
      f-1     :     0.001153
      f+2     :     0.002025
      f-2     :     0.004541
      f+3     :     0.001955
      f-3     :     0.002104
  2 C s       :     3.181622  s :     3.181622
      pz      :     1.007916  p :     3.089896
      px      :     1.075319
      py      :     1.006660
      dz2     :     0.010179  d :     0.044324
      dxz     :     0.004814
      dyz     :     0.011769
      dx2y2   :     0.007263
      dxy     :     0.010299
      f0      :     0.000335  f :     0.003034
      f+1     :     0.000265
      f-1     :     0.001006
      f+2     :     0.000294
      f-2     :     0.000448
      f+3     :     0.000212
      f-3     :     0.000473
  3 C s       :     3.201986  s :     3.201986
      pz      :     1.058502  p :     3.094598
      px      :     1.025958
      py      :     1.010137
      dz2     :     0.007470  d :     0.044430
      dxz     :     0.005293
      dyz     :     0.010329
      dx2y2   :     0.009818
      dxy     :     0.011520
      f0      :     0.000369  f :     0.003088
      f+1     :     0.000116
      f-1     :     0.000839
      f+2     :     0.000009
      f-2     :     0.000555
      f+3     :     0.000516
      f-3     :     0.000684
  4 H s       :     0.840330  s :     0.840330
      pz      :     0.004182  p :     0.021727
      px      :     0.008608
      py      :     0.008938
  5 H s       :     0.824397  s :     0.824397
      pz      :     0.004615  p :     0.021831
      px      :     0.011159
      py      :     0.006056
  6 H s       :     0.850296  s :     0.850296
      pz      :     0.010969  p :     0.021918
      px      :     0.004832
      py      :     0.006117
  7 H s       :     0.830815  s :     0.830815
      pz      :     0.008928  p :     0.021538
      px      :     0.004253
      py      :     0.008357
  8 H s       :     0.832541  s :     0.832541
      pz      :     0.004914  p :     0.022136
      px      :     0.011128
      py      :     0.006095
  9 H s       :     0.863471  s :     0.863471
      pz      :     0.010165  p :     0.021295
      px      :     0.004826
      py      :     0.006304


                     *******************************
                     * LOEWDIN POPULATION ANALYSIS *
                     *******************************

----------------------
LOEWDIN ATOMIC CHARGES
----------------------
   0 O :    0.058245
   1 C :   -0.375704
   2 C :   -0.259137
   3 C :   -0.261705
   4 H :    0.133796
   5 H :    0.144380
   6 H :    0.144376
   7 H :    0.135312
   8 H :    0.145360
   9 H :    0.135076

-------------------------------
LOEWDIN REDUCED ORBITAL CHARGES
-------------------------------
  0 O s       :     3.392407  s :     3.392407
      pz      :     1.468870  p :     4.475521
      px      :     1.474865
      py      :     1.531786
      dz2     :     0.013966  d :     0.067621
      dxz     :     0.021965
      dyz     :     0.009571
      dx2y2   :     0.010391
      dxy     :     0.011728
      f0      :     0.000678  f :     0.006207
      f+1     :     0.001681
      f-1     :     0.000211
      f+2     :     0.001427
      f-2     :     0.001171
      f+3     :     0.000464
      f-3     :     0.000575
  1 C s       :     2.778000  s :     2.778000
      pz      :     0.892114  p :     2.688884
      px      :     0.904352
      py      :     0.892419
      dz2     :     0.181540  d :     0.794453
      dxz     :     0.160233
      dyz     :     0.148166
      dx2y2   :     0.138619
      dxy     :     0.165894
      f0      :     0.017147  f :     0.114366
      f+1     :     0.022336
      f-1     :     0.007590
      f+2     :     0.013924
      f-2     :     0.027565
      f+3     :     0.011826
      f-3     :     0.013979
  2 C s       :     2.835296  s :     2.835296
      pz      :     1.054423  p :     3.181729
      px      :     1.073551
      py      :     1.053755
      dz2     :     0.057409  d :     0.219287
      dxz     :     0.018081
      dyz     :     0.059386
      dx2y2   :     0.025612
      dxy     :     0.058800
      f0      :     0.002341  f :     0.022825
      f+1     :     0.003901
      f-1     :     0.005107
      f+2     :     0.004282
      f-2     :     0.003018
      f+3     :     0.001428
      f-3     :     0.002747
  3 C s       :     2.835546  s :     2.835546
      pz      :     1.068666  p :     3.182702
      px      :     1.059239
      py      :     1.054797
      dz2     :     0.036507  d :     0.220570
      dxz     :     0.019339
      dyz     :     0.062222
      dx2y2   :     0.043831
      dxy     :     0.058672
      f0      :     0.002459  f :     0.022887
      f+1     :     0.002946
      f-1     :     0.003140
      f+2     :     0.002379
      f-2     :     0.003186
      f+3     :     0.003808
      f-3     :     0.004969
  4 H s       :     0.803411  s :     0.803411
      pz      :     0.012655  p :     0.062792
      px      :     0.025564
      py      :     0.024573
  5 H s       :     0.792532  s :     0.792532
      pz      :     0.013385  p :     0.063087
      px      :     0.032712
      py      :     0.016990
  6 H s       :     0.793027  s :     0.793027
      pz      :     0.029915  p :     0.062596
      px      :     0.014193
      py      :     0.018488
  7 H s       :     0.801738  s :     0.801738
      pz      :     0.026369  p :     0.062950
      px      :     0.013207
      py      :     0.023374
  8 H s       :     0.791748  s :     0.791748
      pz      :     0.014454  p :     0.062892
      px      :     0.030311
      py      :     0.018127
  9 H s       :     0.802780  s :     0.802780
      pz      :     0.030758  p :     0.062144
      px      :     0.013817
      py      :     0.017569


                      *****************************
                      * MAYER POPULATION ANALYSIS *
                      *****************************

  NA   - Mulliken gross atomic population
  ZA   - Total nuclear charge
  QA   - Mulliken gross atomic charge
  VA   - Mayer's total valence
  BVA  - Mayer's bonded valence
  FA   - Mayer's free valence

  ATOM       NA         ZA         QA         VA         BVA        FA
  0 O      8.4112     8.0000    -0.4112     2.0823     2.0823     0.0000
  1 C      5.7535     6.0000     0.2465     4.1090     4.1090     0.0000
  2 C      6.3189     6.0000    -0.3189     3.7744     3.7744    -0.0000
  3 C      6.3441     6.0000    -0.3441     3.7748     3.7748    -0.0000
  4 H      0.8621     1.0000     0.1379     0.9927     0.9927     0.0000
  5 H      0.8462     1.0000     0.1538     0.9697     0.9697     0.0000
  6 H      0.8722     1.0000     0.1278     0.9799     0.9799     0.0000
  7 H      0.8524     1.0000     0.1476     0.9908     0.9908     0.0000
  8 H      0.8547     1.0000     0.1453     0.9811     0.9811    -0.0000
  9 H      0.8848     1.0000     0.1152     0.9726     0.9726     0.0000

  Mayer bond orders larger than 0.100000
B(  0-O ,  1-C ) :   2.0590 B(  1-C ,  2-C ) :   1.0100 B(  1-C ,  3-C ) :   0.9867 
B(  2-C ,  4-H ) :   0.9595 B(  2-C ,  5-H ) :   0.9429 B(  2-C ,  6-H ) :   0.9363 
B(  3-C ,  7-H ) :   0.9660 B(  3-C ,  8-H ) :   0.9425 B(  3-C ,  9-H ) :   0.9485 


-------
TIMINGS
-------

Total SCF time: 0 days 0 hours 0 min 1 sec 

Total time                  ....       1.168 sec
Sum of individual times     ....       0.921 sec  ( 78.8%)

Fock matrix formation       ....       0.655 sec  ( 56.1%)
  XC integration            ....       0.057 sec  (  8.7% of F)
    Basis function eval.    ....       0.009 sec  ( 15.7% of XC)
    Density eval.           ....       0.010 sec  ( 17.0% of XC)
    XC-Functional eval.     ....       0.002 sec  (  3.9% of XC)
    XC-Potential eval.      ....       0.017 sec  ( 30.0% of XC)
Diagonalization             ....       0.005 sec  (  0.5%)
Density matrix formation    ....       0.002 sec  (  0.1%)
Population analysis         ....       0.006 sec  (  0.6%)
Initial guess               ....       0.008 sec  (  0.7%)
Orbital Transformation      ....       0.000 sec  (  0.0%)
Orbital Orthonormalization  ....       0.005 sec  (  0.4%)
DIIS solution               ....       0.001 sec  (  0.1%)
SOSCF solution              ....       0.004 sec  (  0.3%)
Grid generation             ....       0.240 sec  ( 20.5%)

-------------------------   --------------------
FINAL SINGLE POINT ENERGY      -193.025150820006
-------------------------   --------------------


                            ***************************************
                            *     ORCA property calculations      *
                            ***************************************

                                    ---------------------
                                    Active property flags
                                    ---------------------
   (+) Dipole Moment


------------------------------------------------------------------------------
                       ORCA ELECTRIC PROPERTIES CALCULATION
------------------------------------------------------------------------------

Dipole Moment Calculation                       ... on
Quadrupole Moment Calculation                   ... off
Polarizability Calculation                      ... off
GBWName                                         ... temp.gbw
Electron density file                           ... temp.scfp
The origin for moment calculation is the CENTER OF MASS  = ( 1.870300, 17.661984  3.055843)

-------------
DIPOLE MOMENT
-------------
                                X             Y             Z
Electronic contribution:     -2.51314       0.09199       2.33400
Nuclear contribution   :      3.72628      -0.09834      -3.42245
                        -----------------------------------------
Total Dipole Moment    :      1.21314      -0.00634      -1.08845
                        -----------------------------------------
Magnitude (a.u.)       :      1.62987
Magnitude (Debye)      :      4.14279



--------------------
Rotational spectrum 
--------------------
 
Rotational constants in cm-1:     0.341603     0.286936     0.165457 
Rotational constants in MHz : 10240.986083  8602.115687  4960.286680 

 Dipole components along the rotational axes: 
x,y,z [a.u.] :     0.008096    -1.629596     0.028522 
x,y,z [Debye]:     0.020579    -4.142105     0.072497 

 

Timings for individual modules:

Sum of individual times         ...        2.684 sec (=   0.045 min)
GTO integral calculation        ...        0.885 sec (=   0.015 min)  33.0 %
SCF iterations                  ...        1.798 sec (=   0.030 min)  67.0 %
                             ****ORCA TERMINATED NORMALLY****
TOTAL RUN TIME: 0 days 0 hours 0 minutes 4 seconds 81 msec
