[Molden Format]
[Title]
 Molden file created by orca_2mkl for BaseName=temp

[Atoms] AU
O    1   8          5.0589744948        19.2249719762        26.1530953770 
C    2   6          4.7111798484        20.9228909075        24.6740917696 
C    3   6          3.6968032056        20.4471977067        22.0568380817 
C    4   6          5.2712682184        23.6330851062        25.3427297882 
H    5   1          3.1384533838        18.4776854457        21.8615500036 
H    6   1          2.0928773625        21.6861323957        21.6524669247 
H    7   1          5.1579224449        20.8860166815        20.6596577262 
H    8   1          6.1778133085        23.7329420145        27.1857173256 
H    9   1          3.5112869014        24.7174345283        25.3821759315 
H   10   1          6.4760045335        24.5047212854        23.9077756970 
[GTO]
  1 0
s   6 1.0 
    27032.3800000000         0.8598581393
     4052.3870000000         1.6055304059
      922.3272000000         2.7458780898
      261.2407000000         4.2987677378
       85.3546400000         5.8797670930
       31.0350400000         6.3163984679
s   2 1.0 
       12.2608600000         2.9812145398
        4.9987080000         0.9419560379
s   1 1.0 
        1.1703110000         0.8019292557
s   1 1.0 
        0.4647474000         0.4011647998
s   1 1.0 
        0.1850454000         0.2010799703
p   4 1.0 
       63.2749500000         3.0572013698
       14.6270500000         3.3844845670
        4.4501220000         2.9474258212
        1.5275800000         1.7118271901
p   1 1.0 
        0.5293512000         0.6436058239
p   1 1.0 
        0.1747842000         0.1610897108
d   1 1.0 
        2.3140000000        12.3767310624
d   1 1.0 
        0.6450000000         1.3234257612
f   1 1.0 
        1.4280000000        12.7097950062

  2 0
s   6 1.0 
    13575.3500000000         0.5435905009
     2035.2330000000         1.0145543008
      463.2256000000         1.7315731015
      131.2002000000         2.6910371555
       42.8530200000         3.6044547316
       15.5841900000         3.7025565440
s   2 1.0 
        6.2067140000         1.8383540114
        2.5764900000         0.5447576606
s   1 1.0 
        0.5769634000         0.4718145074
s   1 1.0 
        0.2297283000         0.2364944571
s   1 1.0 
        0.0951644400         0.1221141848
p   4 1.0 
       34.6972300000         1.3596652360
        7.9582620000         1.4512590746
        2.3780830000         1.2709231872
        0.8143321000         0.8025721831
p   1 1.0 
        0.2888755000         0.3018759228
p   1 1.0 
        0.1005682000         0.0807264648
d   1 1.0 
        1.0970000000         3.3522135855
d   1 1.0 
        0.3180000000         0.3838994974
f   1 1.0 
        0.7610000000         3.0840084332

  3 0
s   6 1.0 
    13575.3500000000         0.5435905009
     2035.2330000000         1.0145543008
      463.2256000000         1.7315731015
      131.2002000000         2.6910371555
       42.8530200000         3.6044547316
       15.5841900000         3.7025565440
s   2 1.0 
        6.2067140000         1.8383540114
        2.5764900000         0.5447576606
s   1 1.0 
        0.5769634000         0.4718145074
s   1 1.0 
        0.2297283000         0.2364944571
s   1 1.0 
        0.0951644400         0.1221141848
p   4 1.0 
       34.6972300000         1.3596652360
        7.9582620000         1.4512590746
        2.3780830000         1.2709231872
        0.8143321000         0.8025721831
p   1 1.0 
        0.2888755000         0.3018759228
p   1 1.0 
        0.1005682000         0.0807264648
d   1 1.0 
        1.0970000000         3.3522135855
d   1 1.0 
        0.3180000000         0.3838994974
f   1 1.0 
        0.7610000000         3.0840084332

  4 0
s   6 1.0 
    13575.3500000000         0.5435905009
     2035.2330000000         1.0145543008
      463.2256000000         1.7315731015
      131.2002000000         2.6910371555
       42.8530200000         3.6044547316
       15.5841900000         3.7025565440
s   2 1.0 
        6.2067140000         1.8383540114
        2.5764900000         0.5447576606
s   1 1.0 
        0.5769634000         0.4718145074
s   1 1.0 
        0.2297283000         0.2364944571
s   1 1.0 
        0.0951644400         0.1221141848
p   4 1.0 
       34.6972300000         1.3596652360
        7.9582620000         1.4512590746
        2.3780830000         1.2709231872
        0.8143321000         0.8025721831
p   1 1.0 
        0.2888755000         0.3018759228
p   1 1.0 
        0.1005682000         0.0807264648
d   1 1.0 
        1.0970000000         3.3522135855
d   1 1.0 
        0.3180000000         0.3838994974
f   1 1.0 
        0.7610000000         3.0840084332

  5 0
s   3 1.0 
       34.0613400000         0.2556298765
        5.1235750000         0.4613598729
        1.1646630000         0.6811216893
s   1 1.0 
        0.3272304000         0.3083545241
s   1 1.0 
        0.1030724000         0.1296483171
p   1 1.0 
        0.8000000000         1.0784563492

  6 0
s   3 1.0 
       34.0613400000         0.2556298765
        5.1235750000         0.4613598729
        1.1646630000         0.6811216893
s   1 1.0 
        0.3272304000         0.3083545241
s   1 1.0 
        0.1030724000         0.1296483171
p   1 1.0 
        0.8000000000         1.0784563492

  7 0
s   3 1.0 
       34.0613400000         0.2556298765
        5.1235750000         0.4613598729
        1.1646630000         0.6811216893
s   1 1.0 
        0.3272304000         0.3083545241
s   1 1.0 
        0.1030724000         0.1296483171
p   1 1.0 
        0.8000000000         1.0784563492

  8 0
s   3 1.0 
       34.0613400000         0.2556298765
        5.1235750000         0.4613598729
        1.1646630000         0.6811216893
s   1 1.0 
        0.3272304000         0.3083545241
s   1 1.0 
        0.1030724000         0.1296483171
p   1 1.0 
        0.8000000000         1.0784563492

  9 0
s   3 1.0 
       34.0613400000         0.2556298765
        5.1235750000         0.4613598729
        1.1646630000         0.6811216893
s   1 1.0 
        0.3272304000         0.3083545241
s   1 1.0 
        0.1030724000         0.1296483171
p   1 1.0 
        0.8000000000         1.0784563492

 10 0
s   3 1.0 
       34.0613400000         0.2556298765
        5.1235750000         0.4613598729
        1.1646630000         0.6811216893
s   1 1.0 
        0.3272304000         0.3083545241
s   1 1.0 
        0.1030724000         0.1296483171
p   1 1.0 
        0.8000000000         1.0784563492

[5D]
[7F]
[9G]
[MO]
 Sym=     1a
 Ene= -1.92158661197363E+01
 Spin= Alpha
 Occup= 2.000000
  1       0.435382181551
  2       0.639605491399
  3       0.034925606435
  4      -0.028841851338
  5       0.010124265350
  6      -0.000296645198
  7       0.001638063319
  8      -0.001300756494
  9       0.000934925979
 10      -0.004748759838
 11       0.004026214144
 12      -0.000061165421
 13       0.000410797778
 14      -0.000292780525
 15       0.000025192510
 16       0.000020874352
 17      -0.000291515434
 18      -0.000109655224
 19      -0.000081141780
 20      -0.000146566250
 21      -0.000190120566
 22       0.001324452368
 23       0.000630711955
 24       0.000332258790
 25      -0.000050247495
 26       0.000023214819
 27      -0.000086688825
 28      -0.000121915130
 29      -0.000052071608
 30       0.000032881482
 31      -0.000057776198
 32       0.000043100713
 33      -0.000258494637
 34       0.000761870243
 35       0.004330492156
 36      -0.001413225214
 37       0.000101169453
 38      -0.000484707752
 39       0.000424612817
 40       0.001293712263
 41      -0.006364254422
 42       0.005532062967
 43      -0.000832848343
 44       0.003706062097
 45      -0.003409209731
 46       0.000068204688
 47       0.000079537557
 48      -0.000284592541
 49      -0.000203326901
 50      -0.000065960828
 51       0.000375298500
 52       0.000383625262
 53      -0.004351011775
 54      -0.001585695843
 55      -0.001183735844
 56       0.000114174315
 57       0.000151944491
 58       0.000048593769
 59      -0.000001937393
 60      -0.000037546577
 61      -0.000040914660
 62      -0.000152080470
 63       0.000017331169
 64      -0.000083390282
 65       0.000347478681
 66       0.001142113174
 67      -0.002018914476
 68       0.000032097836
 69      -0.000033745544
 70       0.000188954752
 71       0.000634286146
 72       0.000505582171
 73       0.000561596092
 74      -0.000140963554
 75      -0.000847298986
 76      -0.000234801178
 77       0.000069263667
 78       0.000068236835
 79      -0.000007011190
 80      -0.000052341629
 81       0.000005037094
 82       0.000534080203
 83      -0.000192424451
 84      -0.000231026144
 85       0.001085595263
 86      -0.000384257614
 87       0.000102739035
 88       0.000006915695
 89      -0.000005450972
 90       0.000086733715
 91      -0.000043651800
 92      -0.000057251110
 93      -0.000014796297
 94       0.000017853960
 95      -0.000085890144
 96       0.000356221733
 97       0.001198181296
 98      -0.001708130245
 99       0.000011407385
100      -0.000197886142
101       0.000016351482
102      -0.000589311933
103      -0.000662119324
104      -0.000541836868
105       0.000271113191
106       0.000083505145
107       0.000793620976
108      -0.000001527330
109       0.000036602426
110      -0.000003616096
111      -0.000104217461
112       0.000022545567
113      -0.001028943022
114      -0.000825135998
115      -0.000051046844
116       0.000004487957
117      -0.000102566853
118       0.000023393114
119       0.000051583655
120       0.000120259029
121       0.000015944849
122       0.000071783530
123       0.000013762302
124      -0.000033140282
125       0.000126485090
126       0.001052405786
127      -0.000159141224
128       0.000099827949
129       0.000165127082
130       0.000072034294
131      -0.000000579687
132      -0.000486443896
133       0.000365989215
134      -0.000002033056
135       0.000148773516
136      -0.000115858104
137      -0.000060725218
138      -0.000878535533
139       0.000417968704
140       0.000050003103
141       0.000107842194
142      -0.000175040763
143       0.000131671046
144       0.001087552874
145      -0.000172252684
146      -0.000114433266
147      -0.000081029632
148      -0.000161781208
149      -0.000055083048
150      -0.000879099605
151       0.000398802239
152      -0.000102145346
153       0.000174300310
154      -0.000077157021
155      -0.000004646527
156      -0.000558990141
157       0.000353027630
158      -0.000043685188
159       0.000139759800
160      -0.000132968733
 Sym=     1a
 Ene= -1.03311407794252E+01
 Spin= Alpha
 Occup= 2.000000
  1      -0.000084687618
  2      -0.000357890071
  3       0.003645586514
  4      -0.014952116346
  5       0.000078960889
  6      -0.000105303468
  7       0.000513403794
  8      -0.000447015109
  9       0.001330622324
 10      -0.006484932804
 11       0.005654206086
 12       0.000028579274
 13      -0.000136615692
 14       0.000121872781
 15      -0.000040162678
 16      -0.000076798830
 17      -0.000084654583
 18       0.000075358138
 19      -0.000053667021
 20      -0.000245756046
 21      -0.000218454684
 22       0.002922823201
 23       0.001112376796
 24       0.000822022584
 25      -0.000224686014
 26      -0.000004992810
 27      -0.000332603278
 28      -0.000407132616
 29      -0.000158244049
 30       0.000140449124
 31      -0.000105624935
 32       0.467183579130
 33       0.608418911401
 34       0.038241373750
 35      -0.023263290338
 36       0.017951518801
 37       0.000162769536
 38      -0.000850817136
 39       0.000675092149
 40       0.002287473572
 41      -0.010910867547
 42       0.009691458354
 43      -0.000960101505
 44       0.004679124131
 45      -0.004061546402
 46       0.000502262375
 47       0.000762748906
 48      -0.001270145248
 49      -0.001364146493
 50      -0.000129998105
 51      -0.000385644337
 52      -0.001060614110
 53      -0.007371895264
 54      -0.000711481876
 55      -0.002607236839
 56      -0.000468964584
 57       0.000253700927
 58      -0.000883328779
 59      -0.001204543627
 60      -0.000527390380
 61       0.000341458011
 62      -0.000579393030
 63       0.000593697056
 64       0.000879307626
 65      -0.000903160939
 66       0.008429450101
 67      -0.007729774591
 68       0.000014551451
 69       0.000101234934
 70       0.000008607188
 71       0.001662414085
 72      -0.000316266341
 73       0.004565117288
 74      -0.000663048874
 75      -0.000878500366
 76      -0.002485350918
 77      -0.000101285233
 78      -0.000051362108
 79       0.000017763931
 80      -0.000031946294
 81       0.000000309309
 82       0.000700544238
 83       0.000226721348
 84      -0.000754384725
 85       0.000314644407
 86      -0.000296121948
 87      -0.000422537847
 88      -0.000470215617
 89      -0.000360959219
 90      -0.000244478353
 91      -0.000235202016
 92      -0.000051088238
 93      -0.000056224182
 94       0.000552774901
 95       0.000827426487
 96      -0.000885212579
 97       0.008228369274
 98      -0.007729664701
 99      -0.000035773867
100      -0.000000414422
101      -0.000096794096
102      -0.000576053795
103      -0.004699766961
104      -0.000041711394
105       0.000395125332
106       0.002470260195
107       0.001069587006
108       0.000078685363
109       0.000006287623
110      -0.000004912189
111       0.000091970397
112      -0.000017348769
113      -0.000647276032
114      -0.000267830111
115      -0.000619854444
116      -0.000601587857
117      -0.000129935483
118      -0.000305338019
119       0.000048833684
120      -0.000348166616
121      -0.000415253552
122       0.000080486484
123       0.000362297993
124       0.000352283594
125       0.000007201065
126      -0.000233935050
127       0.000421340471
128      -0.000088998644
129       0.000058349585
130      -0.000350213223
131       0.000023891759
132      -0.000466809769
133       0.000122318778
134      -0.000024545669
135      -0.000053955268
136      -0.000242591921
137      -0.000035354930
138      -0.000512304747
139      -0.000380839413
140      -0.000133599094
141      -0.000032089004
142      -0.000213099084
143       0.000004431833
144      -0.000236155459
145       0.000426320443
146       0.000007082941
147       0.000362051618
148      -0.000022001399
149      -0.000030285300
150      -0.000493846769
151      -0.000347367810
152       0.000095154187
153       0.000227348352
154       0.000037654752
155       0.000017810670
156      -0.000466367799
157       0.000070207777
158      -0.000010930806
159       0.000231215647
160       0.000083603455
 Sym=     1a
 Ene= -1.02292722674169E+01
 Spin= Alpha
 Occup= 2.000000
  1      -0.000004701646
  2       0.000054492879
  3      -0.000621479563
  4       0.002614938475
  5      -0.000703590383
  6       0.000065296703
  7       0.000029745027
  8       0.000145228010
  9      -0.000471834198
 10      -0.000003632821
 11      -0.001185575516
 12       0.000165645235
 13       0.000595399466
 14       0.000069647918
 15      -0.000033250390
 16      -0.000004501704
 17       0.000022698133
 18      -0.000028074002
 19       0.000015087351
 20       0.000279005176
 21       0.000102169704
 22      -0.000080742218
 23       0.000171026432
 24      -0.000063971963
 25      -0.000031728080
 26      -0.000000715383
 27      -0.000036637712
 28      -0.000042485839
 29       0.000002508233
 30       0.000031817870
 31       0.000025729002
 32       0.000663752068
 33       0.000773071201
 34       0.000012249977
 35      -0.002796930849
 36       0.009396262424
 37       0.000187154647
 38       0.000247776569
 39       0.000450000818
 40      -0.001695084526
 41      -0.002150983216
 42      -0.003937301764
 43      -0.002030230950
 44      -0.003900706600
 45      -0.004522344156
 46       0.000098816374
 47       0.000107316210
 48      -0.000012810436
 49      -0.000080771104
 50       0.000022259307
 51       0.003087343675
 52       0.001454794705
 53       0.001598245329
 54       0.002407146119
 55       0.000049628509
 56      -0.000477871518
 57      -0.000719391930
 58      -0.000282413460
 59      -0.000039974103
 60      -0.000238567253
 61      -0.000090585951
 62       0.000033685248
 63      -0.467082273016
 64      -0.608678649242
 65      -0.034429086380
 66       0.014148443782
 67      -0.032476281681
 68      -0.000162614258
 69      -0.000202233474
 70      -0.000328849247
 71      -0.000287860370
 72       0.000058883783
 73      -0.000545875656
 74      -0.001706195597
 75      -0.001593786033
 76      -0.002806435667
 77      -0.000010994575
 78      -0.000052792063
 79       0.000029904798
 80       0.000070628977
 81      -0.000016882894
 82      -0.000063926206
 83       0.000199331327
 84       0.000178982372
 85      -0.000450696310
 86       0.000228440566
 87      -0.000664456200
 88      -0.000909038103
 89      -0.000352414037
 90       0.000219783906
 91       0.000077055309
 92       0.000768353400
 93       0.000976905688
 94       0.000325348932
 95       0.000416281942
 96      -0.000477026331
 97       0.003645820434
 98       0.003895111995
 99       0.000028817765
100       0.000061244659
101       0.000100036001
102      -0.001061550323
103      -0.002598364608
104      -0.001993121515
105      -0.001239374907
106      -0.001050399109
107      -0.001751845386
108      -0.000001921620
109       0.000043397777
110       0.000002319884
111      -0.000053552235
112       0.000022858343
113      -0.000508441097
114      -0.000156094453
115       0.001160617257
116      -0.000445717831
117       0.000448156744
118       0.000073257352
119      -0.000017738434
120      -0.000043913684
121       0.000074731473
122      -0.000071617515
123      -0.000041346234
124      -0.000057636455
125       0.000455544089
126       0.001840013218
127       0.003768192208
128       0.000495875863
129       0.001822099130
130       0.000143633348
131       0.000434504858
132       0.002598343080
133       0.004956056456
134       0.001511414323
135      -0.001195369143
136       0.000461296695
137       0.000432626946
138       0.002742249863
139       0.005329954884
140      -0.001343281015
141      -0.000429874433
142       0.001396963674
143       0.000071762794
144       0.000856398047
145       0.001039156806
146      -0.000069827333
147      -0.000098662123
148      -0.000141432949
149      -0.000030614101
150      -0.000385478657
151      -0.000767731260
152      -0.000003188298
153       0.000079428035
154      -0.000034365304
155      -0.000028491232
156      -0.000252094508
157      -0.000142117001
158      -0.000065247594
159       0.000073171835
160      -0.000036173323
 Sym=     1a
 Ene= -1.02221376890206E+01
 Spin= Alpha
 Occup= 2.000000
  1       0.000004699792
  2      -0.000055235604
  3       0.000627756066
  4      -0.002627076758
  5       0.000728722305
  6       0.000039176565
  7       0.000153163391
  8       0.000040098697
  9      -0.000212100651
 10      -0.001258965606
 11      -0.000104438459
 12       0.000258654274
 13       0.000051882769
 14       0.000565014216
 15      -0.000038115715
 16      -0.000022608426
 17      -0.000014547137
 18      -0.000021551490
 19      -0.000004344538
 20       0.000266670015
 21       0.000111474928
 22       0.000019698878
 23       0.000211304658
 24      -0.000025758994
 25       0.000040265870
 26       0.000038618330
 27       0.000037605051
 28       0.000029977171
 29       0.000022423703
 30      -0.000003234349
 31       0.000003234522
 32      -0.000623964420
 33      -0.000720492956
 34      -0.000042428114
 35       0.002979240145
 36      -0.009407206234
 37       0.000146147791
 38       0.000450165387
 39       0.000274619607
 40      -0.001322825036
 41      -0.003877606150
 42      -0.002383871734
 43      -0.001897355856
 44      -0.004414254794
 45      -0.004111768296
 46      -0.000003830752
 47      -0.000068323920
 48       0.000002312452
 49       0.000148416368
 50      -0.000036581096
 51       0.002992708917
 52       0.001087662376
 53      -0.002187222022
 54       0.001868161199
 55      -0.001220294621
 56       0.000271937150
 57       0.000008989461
 58       0.000288264984
 59       0.000328335693
 60      -0.000263651647
 61      -0.000418694619
 62      -0.000617552141
 63       0.000325024305
 64       0.000431095175
 65       0.000539873368
 66      -0.003744125815
 67      -0.003878993389
 68       0.000026322661
 69       0.000096933828
 70       0.000071096802
 71      -0.001268677757
 72      -0.001878512222
 73      -0.002653576273
 74      -0.001124033306
 75      -0.001844424814
 76      -0.001037544195
 77      -0.000035859319
 78      -0.000048619671
 79       0.000002292535
 80       0.000032454460
 81      -0.000024996818
 82      -0.000757309867
 83      -0.000403194858
 84      -0.001048766192
 85      -0.000452850508
 86      -0.000187403080
 87      -0.000025846133
 88      -0.000062963240
 89      -0.000098208440
 90       0.000050843969
 91      -0.000069581968
 92      -0.000045283522
 93       0.000018461789
 94       0.467081413866
 95       0.608675788161
 96       0.034464474184
 97      -0.014250453353
 98       0.032477455454
 99      -0.000193294473
100      -0.000372008698
101      -0.000193260678
102      -0.000084256414
103      -0.000484170216
104       0.000007948295
105      -0.001434977708
106      -0.002929059539
107      -0.001676662459
108       0.000033136108
109       0.000060696590
110      -0.000033364631
111      -0.000062129082
112       0.000012787258
113      -0.000324881157
114      -0.000410079916
115      -0.000160330566
116       0.000187361927
117      -0.000137020309
118       0.000503699251
119       0.001281192045
120       0.000305997497
121       0.000196030091
122      -0.000382666828
123      -0.000118257676
124      -0.000891615455
125      -0.000071716679
126      -0.000849520390
127      -0.001043824196
128      -0.000065705103
129      -0.000141559804
130      -0.000101775325
131       0.000024430218
132       0.000210799884
133       0.000138228947
134      -0.000048525154
135      -0.000052563014
136       0.000075384224
137       0.000031623917
138       0.000413398575
139       0.000758848444
140       0.000017712690
141      -0.000038313976
142       0.000076849223
143      -0.000456924133
144      -0.001828629340
145      -0.003751198564
146       0.000827025717
147       0.000047989473
148       0.001701680057
149      -0.000434089872
150      -0.002747149686
151      -0.005340815136
152      -0.001652717878
153       0.001112040473
154       0.000025218634
155      -0.000437345738
156      -0.002638732661
157      -0.004948675442
158       0.001112303111
159       0.000902433414
160      -0.001364155049
 Sym=     1a
 Ene= -1.10006768847271E+00
 Spin= Alpha
 Occup= 2.000000
  1      -0.088980911761
  2      -0.209662799219
  3       0.301042411041
  4       0.395391950964
  5       0.127619163276
  6      -0.017428986318
  7       0.088265870091
  8      -0.073976032595
  9      -0.013401217218
 10       0.068681549830
 11      -0.056520226147
 12      -0.000631891340
 13       0.010089823356
 14      -0.001024682545
 15       0.000628127458
 16       0.000870615162
 17      -0.005961492556
 18      -0.002777939042
 19      -0.001545881712
 20       0.002046116887
 21       0.000640825763
 22      -0.013311476547
 23      -0.005501436482
 24      -0.003908449362
 25       0.001158305301
 26      -0.000210796456
 27       0.001635344297
 28       0.001980373936
 29       0.000744688733
 30      -0.000709756303
 31       0.000669833179
 32      -0.056920604592
 33      -0.119901265874
 34       0.186179979307
 35       0.144053403615
 36       0.021112950069
 37       0.020630487192
 38      -0.100922495574
 39       0.088092386298
 40       0.005999369360
 41      -0.026149418333
 42       0.024763460848
 43      -0.000845060804
 44      -0.005394935759
 45      -0.004988456496
 46       0.003118874276
 47       0.003996078898
 48      -0.016178192738
 49      -0.009686978549
 50      -0.003514474430
 51       0.001416021727
 52       0.004191058360
 53      -0.001248588021
 54      -0.007435634878
 55       0.001109759646
 56      -0.003716881270
 57      -0.000928785774
 58      -0.004893899867
 59      -0.005527343459
 60      -0.001934376865
 61       0.002156580564
 62      -0.000414753222
 63      -0.008222158105
 64      -0.017022339094
 65       0.025506410164
 66       0.016023419586
 67      -0.016493754451
 68       0.005424272227
 69      -0.001961403117
 70       0.015320183711
 71       0.001162555981
 72      -0.002632351633
 73       0.004214570135
 74      -0.001834850162
 75       0.000647670394
 76      -0.002878436870
 77       0.000995303986
 78       0.000630449213
 79      -0.000639799349
 80       0.000094141782
 81      -0.000201290634
 82       0.000371337832
 83      -0.000002314339
 84      -0.001179779057
 85      -0.000346119803
 86      -0.000312926749
 87       0.000162520952
 88       0.000409104343
 89      -0.000698069697
 90      -0.000328759103
 91      -0.000305594523
 92       0.000066318435
 93      -0.000008580969
 94      -0.008129133458
 95      -0.016823999146
 96       0.025706955354
 97       0.012093942586
 98      -0.003345354125
 99      -0.001804928866
100      -0.016238993221
101       0.000629242835
102       0.001156932577
103      -0.002200932678
104       0.002712351762
105      -0.001603768308
106       0.000182339157
107       0.000139955110
108      -0.000624019259
109      -0.000042849484
110      -0.000502820085
111      -0.001086916315
112       0.000034143197
113       0.000231800001
114      -0.000443371131
115      -0.001891868032
116       0.000222693824
117      -0.000548513718
118      -0.000549842214
119      -0.000005581642
120       0.000055344621
121      -0.000671111167
122      -0.000112163354
123       0.000126560198
124      -0.000570532360
125       0.004926388502
126       0.004594677396
127       0.003194911562
128       0.000477432287
129       0.000873325583
130       0.000635171320
131       0.002676054045
132       0.003298830914
133       0.001341374627
134       0.000500003492
135      -0.000333465772
136       0.000548095912
137       0.002919752731
138       0.003780697216
139       0.001825929312
140      -0.000097110894
141      -0.000134681837
142       0.000947427986
143       0.004916960422
144       0.004809804527
145       0.002151511739
146      -0.000515132191
147      -0.000665850341
148      -0.000893582920
149       0.002891611921
150       0.003442478243
151       0.000116656176
152       0.000317973475
153      -0.000940859202
154      -0.000064489334
155       0.002556475885
156       0.002548247873
157       0.001758138551
158      -0.000274922565
159      -0.000662899927
160       0.000209955332
 Sym=     1a
 Ene= -8.01048398208267E-01
 Spin= Alpha
 Occup= 2.000000
  1       0.030306859553
  2       0.072147316584
  3      -0.109347708449
  4      -0.140694138291
  5      -0.076185395322
  6      -0.001872855765
  7       0.003772322342
  8      -0.007191381996
  9      -0.001871011673
 10       0.003725440643
 11      -0.006731034437
 12      -0.001847327572
 13       0.001744465291
 14      -0.008671076142
 15       0.000151741570
 16       0.000139931692
 17       0.000530160774
 18      -0.000008344692
 19       0.000198221558
 20       0.000000876462
 21       0.000951582591
 22       0.000129873740
 23      -0.000485809837
 24       0.000296554597
 25      -0.000243165821
 26      -0.000101564709
 27      -0.000044780378
 28      -0.000068491934
 29       0.000059379226
 30       0.000073579808
 31       0.000089694560
 32      -0.045310583107
 33      -0.096865388261
 34       0.152874773021
 35       0.158411006638
 36       0.032544190589
 37      -0.021998611181
 38       0.094029790662
 39      -0.088930592409
 40      -0.014587465538
 41       0.053112150643
 42      -0.055720523219
 43       0.002843254674
 44       0.016981124186
 45       0.001007839448
 46       0.001326394253
 47       0.002697531614
 48       0.007922444506
 49      -0.001184397023
 50       0.003248414457
 51       0.003918477721
 52       0.004007430804
 53       0.007312462553
 54      -0.000106140309
 55       0.002804142559
 56      -0.001342760379
 57      -0.001872461240
 58      -0.000611849474
 59      -0.000048826623
 60       0.000295882174
 61       0.000485174561
 62       0.001576260262
 63      -0.061489327915
 64      -0.130869491291
 65       0.196690758555
 66       0.225392140405
 67       0.024877895660
 68       0.014206712957
 69       0.021331981773
 70       0.030718792233
 71       0.012996823177
 72       0.018799196064
 73       0.025099142653
 74      -0.000020760354
 75       0.003527107091
 76       0.006734258789
 77       0.002172713439
 78       0.001919145068
 79       0.002070178901
 80      -0.000035811714
 81       0.000777339014
 82       0.003534678521
 83       0.002829740302
 84       0.005272778626
 85       0.001522524596
 86       0.002026360644
 87       0.001812222811
 88       0.002816867670
 89       0.002083413972
 90      -0.000380299773
 91       0.000793012051
 92      -0.001297914382
 93      -0.002013864135
 94      -0.055692681231
 95      -0.118468922209
 96       0.176604139943
 97       0.210773188455
 98      -0.002603775419
 99      -0.013499587923
100      -0.030069963203
101      -0.022488370773
102      -0.012930332332
103      -0.029031294645
104      -0.021323907955
105      -0.005568455975
106       0.004116566465
107      -0.005418342711
108      -0.000798841191
109       0.000683508560
110       0.002465108593
111      -0.002089409972
112       0.001446410857
113      -0.002596654341
114       0.000822369949
115       0.006932267502
116      -0.004478587484
117       0.003954393687
118       0.001999673886
119       0.002228569205
120       0.000598351108