
                                 *****************
                                 * O   R   C   A *
                                 *****************

           --- An Ab Initio, DFT and Semiempirical electronic structure package ---

                  #######################################################
                  #                        -***-                        #
                  #          Department of theory and spectroscopy      #
                  #               Directorship: Frank Neese             #
                  #        Max Planck Institute fuer Kohlenforschung    #
                  #                Kaiser Wilhelm Platz 1               #
                  #                 D-45470 Muelheim/Ruhr               #
                  #                      Germany                        #
                  #                                                     #
                  #                  All rights reserved                #
                  #                        -***-                        #
                  #######################################################


                         Program Version 4.2.1 -  RELEASE  -


 With contributions from (in alphabetic order):
   Daniel Aravena         : Magnetic Suceptibility
   Michael Atanasov       : Ab Initio Ligand Field Theory (pilot matlab implementation)
   Alexander A. Auer      : GIAO ZORA, VPT2
   Ute Becker             : Parallelization
   Giovanni Bistoni       : ED, misc. LED, open-shell LED, HFLD
   Martin Brehm           : Molecular dynamics
   Dmytro Bykov           : SCF Hessian
   Vijay G. Chilkuri      : MRCI spin determinant printing, contributions to CSF-ICE
   Dipayan Datta          : RHF DLPNO-CCSD density
   Achintya Kumar Dutta   : EOM-CC, STEOM-CC
   Dmitry Ganyushin       : Spin-Orbit,Spin-Spin,Magnetic field MRCI
   Miquel Garcia          : C-PCM Hessian, Gaussian charge scheme
   Yang Guo               : DLPNO-NEVPT2, CIM, IAO-localization
   Andreas Hansen         : Spin unrestricted coupled pair/coupled cluster methods
   Benjamin Helmich-Paris : CASSCF linear response (MC-RPA)
   Lee Huntington         : MR-EOM, pCC
   Robert Izsak           : Overlap fitted RIJCOSX, COSX-SCS-MP3, EOM
   Christian Kollmar      : KDIIS, OOCD, Brueckner-CCSD(T), CCSD density
   Simone Kossmann        : Meta GGA functionals, TD-DFT gradient, OOMP2, MP2 Hessian
   Martin Krupicka        : AUTO-CI
   Lucas Lang             : DCDCAS
   Dagmar Lenk            : GEPOL surface, SMD
   Dimitrios Liakos       : Extrapolation schemes; Compound Job, initial MDCI parallelization
   Dimitrios Manganas     : Further ROCIS development; embedding schemes
   Dimitrios Pantazis     : SARC Basis sets
   Taras Petrenko         : DFT Hessian,TD-DFT gradient, ASA, ECA, R-Raman, ABS, FL, XAS/XES, NRVS
   Peter Pinski           : DLPNO-MP2, DLPNO-MP2 Gradient
   Christoph Reimann      : Effective Core Potentials
   Marius Retegan         : Local ZFS, SOC
   Christoph Riplinger    : Optimizer, TS searches, QM/MM, DLPNO-CCSD(T), (RO)-DLPNO pert. Triples
   Tobias Risthaus        : Range-separated hybrids, TD-DFT gradient, RPA, STAB
   Michael Roemelt        : Original ROCIS implementation
   Masaaki Saitow         : Open-shell DLPNO-CCSD energy and density
   Barbara Sandhoefer     : DKH picture change effects
   Avijit Sen             : IP-ROCIS
   Kantharuban Sivalingam : CASSCF convergence, NEVPT2, FIC-MRCI
   Bernardo de Souza      : ESD, SOC TD-DFT
   Georgi Stoychev        : AutoAux, RI-MP2 NMR
   Willem Van den Heuvel  : Paramagnetic NMR
   Boris Wezisla          : Elementary symmetry handling
   Frank Wennmohs         : Technical directorship


 We gratefully acknowledge several colleagues who have allowed us to
 interface, adapt or use parts of their codes:
   Stefan Grimme, W. Hujo, H. Kruse,             : VdW corrections, initial TS optimization,
                  C. Bannwarth                     DFT functionals, gCP, sTDA/sTD-DF
   Ed Valeev, F. Pavosevic, A. Kumar             : LibInt (2-el integral package), F12 methods
   Garnet Chan, S. Sharma, J. Yang, R. Olivares  : DMRG
   Ulf Ekstrom                                   : XCFun DFT Library
   Mihaly Kallay                                 : mrcc  (arbitrary order and MRCC methods)
   Andreas Klamt, Michael Diedenhofen            : otool_cosmo (COSMO solvation model)
   Jiri Pittner, Ondrej Demel                    : Mk-CCSD
   Frank Weinhold                                : gennbo (NPA and NBO analysis)
   Christopher J. Cramer and Donald G. Truhlar   : smd solvation model
   Lars Goerigk                                  : TD-DFT with DH, B97 family of functionals
   V. Asgeirsson, H. Jonsson                     : NEB implementation
   FAccTs GmbH                                   : IRC, NEB, NEB-TS, Multilevel, MM, QM/MM, CI optimization
   S Lehtola, MJT Oliveira, MAL Marques          : LibXC Library


 Your calculation uses the libint2 library for the computation of 2-el integrals
 For citations please refer to: http://libint.valeyev.net

 Your ORCA version has been built with support for libXC version: 4.2.3
 For citations please refer to: https://tddft.org/programs/libxc/

 This ORCA versions uses:
   CBLAS   interface :  Fast vector & matrix operations
   LAPACKE interface :  Fast linear algebra routines
   SCALAPACK package :  Parallel linear algebra routines



Reading of a custom basis requested
Basis file         : system.bas
READING GTO-BASIS: OXYGEN
READING GTO-BASIS: CARBON
READING GTO-BASIS: HYDROGEN
Basis successfully read

Reading of a custom AuxJ basis requested
Basis file: system.aux
READING GTO-BASIS: OXYGEN
READING GTO-BASIS: CARBON
READING GTO-BASIS: HYDROGEN
Basis read successfully!

----- Orbital basis set information -----
----- AuxJ basis set information -----
================================================================================
                                        WARNINGS
                       Please study these warnings very carefully!
================================================================================


INFO   : the flag for use of LIBINT has been found!

================================================================================
                                       INPUT FILE
================================================================================
NAME = temp.inp
|  1> * xyz  0 1
|  2>   O    2.677094   10.173417   13.839622
|  3>   C    2.493049   11.071917   13.056967
|  4>   C    1.956264   10.820191   11.671976
|  5>   C    2.789435   12.506090   13.410795
|  6>   H    1.660798    9.777970   11.568634
|  7>   H    1.107503   11.475807   11.457992
|  8>   H    2.729455   11.052404   10.932620
|  9>   H    3.269158   12.558932   14.386062
| 10>   H    1.858093   13.079903   13.431669
| 11>   H    3.426954   12.967340   12.651450
| 12> * 
| 13> 
| 14> %pal
| 15> nprocs 26
| 16> end
| 17> 
| 18> %basis
| 19> GTOName ="system.bas";
| 20> GTOAuxName ="system.aux";
| 21> end
| 22>  
| 23> 
| 24> %pointcharges "background.crg"
| 25> ! DFT PBE0 TightSCF  
| 26> 
| 27> 
| 28>                          ****END OF INPUT****
================================================================================

                       ****************************
                       * Single Point Calculation *
                       ****************************

---------------------------------
CARTESIAN COORDINATES (ANGSTROEM)
---------------------------------
  O      2.677094   10.173417   13.839622
  C      2.493049   11.071917   13.056967
  C      1.956264   10.820191   11.671976
  C      2.789435   12.506090   13.410795
  H      1.660798    9.777970   11.568634
  H      1.107503   11.475807   11.457992
  H      2.729455   11.052404   10.932620
  H      3.269158   12.558932   14.386062
  H      1.858093   13.079903   13.431669
  H      3.426954   12.967340   12.651450

----------------------------
CARTESIAN COORDINATES (A.U.)
----------------------------
  NO LB      ZA    FRAG     MASS         X           Y           Z
   0 O     8.0000    0    15.999    5.058974   19.224972   26.153095
   1 C     6.0000    0    12.011    4.711180   20.922891   24.674092
   2 C     6.0000    0    12.011    3.696803   20.447198   22.056838
   3 C     6.0000    0    12.011    5.271268   23.633085   25.342730
   4 H     1.0000    0     1.008    3.138453   18.477685   21.861550
   5 H     1.0000    0     1.008    2.092877   21.686132   21.652467
   6 H     1.0000    0     1.008    5.157922   20.886017   20.659658
   7 H     1.0000    0     1.008    6.177813   23.732942   27.185717
   8 H     1.0000    0     1.008    3.511287   24.717435   25.382176
   9 H     1.0000    0     1.008    6.476005   24.504721   23.907776

--------------------------------
INTERNAL COORDINATES (ANGSTROEM)
--------------------------------
 O      0   0   0     0.000000000000     0.00000000     0.00000000
 C      1   0   0     1.205704632590     0.00000000     0.00000000
 C      2   1   0     1.506553744605   121.77748994     0.00000000
 C      2   1   3     1.506615779988   121.79621109   180.09346995
 H      3   2   1     1.088211532268   110.12497248     7.24838775
 H      3   2   1     1.093625496609   110.86906874   129.44071161
 H      3   2   1     1.094712060126   109.49931997   247.01696124
 H      4   2   1     1.088150796067   110.08660949     6.00353208
 H      4   2   1     1.094118368281   109.64916960   245.55767641
 H      4   2   1     1.093520400764   110.67886036   128.04348333

---------------------------
INTERNAL COORDINATES (A.U.)
---------------------------
 O      0   0   0     0.000000000000     0.00000000     0.00000000
 C      1   0   0     2.278451553996     0.00000000     0.00000000
 C      2   1   0     2.846973983336   121.77748994     0.00000000
 C      2   1   3     2.847091213222   121.79621109   180.09346995
 H      3   2   1     2.056421771761   110.12497248     7.24838775
 H      3   2   1     2.066652681664   110.86906874   129.44071161
 H      3   2   1     2.068705989139   109.49931997   247.01696124
 H      4   2   1     2.056306996976   110.08660949     6.00353208
 H      4   2   1     2.067584074143   109.64916960   245.55767641
 H      4   2   1     2.066454079299   110.67886036   128.04348333

---------------------
BASIS SET INFORMATION
---------------------
There are 3 groups of distinct atoms

 Group   1 Type O   : 11s6p2d1f contracted to 5s3p2d1f pattern {62111/411/11/1}
 Group   2 Type C   : 11s6p2d1f contracted to 5s3p2d1f pattern {62111/411/11/1}
 Group   3 Type H   : 5s1p contracted to 3s1p pattern {311/1}

Atom   0O    basis set group =>   1
Atom   1C    basis set group =>   2
Atom   2C    basis set group =>   2
Atom   3C    basis set group =>   2
Atom   4H    basis set group =>   3
Atom   5H    basis set group =>   3
Atom   6H    basis set group =>   3
Atom   7H    basis set group =>   3
Atom   8H    basis set group =>   3
Atom   9H    basis set group =>   3
---------------------------------
AUXILIARY/J BASIS SET INFORMATION
---------------------------------
There are 3 groups of distinct atoms

 Group   1 Type O   : 8s6p5d3f1g contracted to 8s6p4d3f1g pattern {11111111/111111/2111/111/1}
 Group   2 Type C   : 8s6p5d3f1g contracted to 8s6p4d3f1g pattern {11111111/111111/2111/111/1}
 Group   3 Type H   : 4s3p2d contracted to 4s2p1d pattern {1111/21/2}

Atom   0O    basis set group =>   1
Atom   1C    basis set group =>   2
Atom   2C    basis set group =>   2
Atom   3C    basis set group =>   2
Atom   4H    basis set group =>   3
Atom   5H    basis set group =>   3
Atom   6H    basis set group =>   3
Atom   7H    basis set group =>   3
Atom   8H    basis set group =>   3
Atom   9H    basis set group =>   3

Checking for AutoStart:
The File: temp.gbw exists
Trying to determine its content:
     ... Fine, the file contains calculation information
     ... Fine, the calculation information was read
     ... Fine, the file contains a basis set
     ... Fine, the basis set was read
     ... Fine, the file contains a geometry
     ... Fine, the geometry was read
     ... Fine, the file contains a set of orbitals
     ... Fine, the orbitals can be read
     => possible old guess file was deleted
     => GBW file was renamed to GES file
     => GES file is set as startup file
     => Guess is set to MORead
     ... now leaving AutoStart



           ************************************************************
           *        Program running with 26 parallel MPI-processes    *
           *              working on a common directory               *
           ************************************************************
------------------------------------------------------------------------------
                           ORCA GTO INTEGRAL CALCULATION
------------------------------------------------------------------------------

                         BASIS SET STATISTICS AND STARTUP INFO

 # of primitive gaussian shells          ...  116
 # of primitive gaussian functions       ...  232
 # of contracted shells                  ...   68
 # of contracted basis functions         ...  160
 Highest angular momentum                ...    3
 Maximum contraction depth               ...    6
 Integral package used                   ... LIBINT
 Integral threshhold            Thresh   ...  2.500e-11
 Primitive cut-off              TCut     ...  2.500e-12


------------------------------ INTEGRAL EVALUATION ----------------------------


 * One electron integrals 
 Pre-screening matrix                    ... done
 Shell pair data                         ... done (   0.001 sec)

ENUC WAS=  0.000000000


           ************************************************************
           *        Program running with 26 parallel MPI-processes    *
           *              working on a common directory               *
           ************************************************************
------------------------------------------------------------------------------
                            ORCA POINT-CHARGE CORRECTION
------------------------------------------------------------------------------

BaseName                           ... temp
Point charge file                  ... background.crg

Reading the GBW file               ... done
Reading the one-electron matrix    ... done
Reading the point charges          ... done
Number of point charges            ... 855
Reading the nuclear-repulsion      ... done
Charge-Nuclei interaction          ... done
The nuclear repulsion file was updated
Doing the point charge correction  ... done
Storing the one-electron matrix    ... done

ENUC IS = 120.338008773


           ************************************************************
           *        Program running with 26 parallel MPI-processes    *
           *              working on a common directory               *
           ************************************************************
-------------------------------------------------------------------------------
                                 ORCA SCF
-------------------------------------------------------------------------------

------------
SCF SETTINGS
------------
Hamiltonian:
 Density Functional     Method          .... DFT(GTOs)
 Exchange Functional    Exchange        .... PBE
   PBE kappa parameter   XKappa         ....  0.804000
   PBE mue parameter    XMuePBE         ....  0.219520
 Correlation Functional Correlation     .... PBE
   PBE beta parameter  CBetaPBE         ....  0.066725
 LDA part of GGA corr.  LDAOpt          .... PW91-LDA
 Gradients option       PostSCFGGA      .... off
 Hybrid DFT is turned on
   Fraction HF Exchange ScalHFX         ....  0.250000
   Scaling of DF-GGA-X  ScalDFX         ....  0.750000
   Scaling of DF-GGA-C  ScalDFC         ....  1.000000
   Scaling of DF-LDA-C  ScalLDAC        ....  1.000000
   Perturbative correction              ....  0.000000
   Density functional embedding theory  .... OFF
   NL short-range parameter             ....  6.900000


General Settings:
 Integral files         IntName         .... temp
 Hartree-Fock type      HFTyp           .... RHF
 Total Charge           Charge          ....    0
 Multiplicity           Mult            ....    1
 Number of Electrons    NEL             ....   32
 Basis Dimension        Dim             ....  160
 Nuclear Repulsion      ENuc            ....    120.3380087733 Eh

Convergence Acceleration:
 DIIS                   CNVDIIS         .... on
   Start iteration      DIISMaxIt       ....    12
   Startup error        DIISStart       ....  0.200000
   # of expansion vecs  DIISMaxEq       ....     5
   Bias factor          DIISBfac        ....   1.050
   Max. coefficient     DIISMaxC        ....  10.000
 Newton-Raphson         CNVNR           .... off
 SOSCF                  CNVSOSCF        .... on
   Start iteration      SOSCFMaxIt      ....   150
   Startup grad/error   SOSCFStart      ....  0.003300
 Level Shifting         CNVShift        .... on
   Level shift para.    LevelShift      ....    0.2500
   Turn off err/grad.   ShiftErr        ....    0.0010
 Zerner damping         CNVZerner       .... off
 Static damping         CNVDamp         .... on
   Fraction old density DampFac         ....    0.7000
   Max. Damping (<1)    DampMax         ....    0.9800
   Min. Damping (>=0)   DampMin         ....    0.0000
   Turn off err/grad.   DampErr         ....    0.1000
 Fernandez-Rico         CNVRico         .... off

SCF Procedure:
 Maximum # iterations   MaxIter         ....   125
 SCF integral mode      SCFMode         .... Direct
   Integral package                     .... LIBINT
 Reset frequency        DirectResetFreq ....    20
 Integral Threshold     Thresh          ....  2.500e-11 Eh
 Primitive CutOff       TCut            ....  2.500e-12 Eh

Convergence Tolerance:
 Convergence Check Mode ConvCheckMode   .... Total+1el-Energy
 Convergence forced     ConvForced      .... 0
 Energy Change          TolE            ....  1.000e-08 Eh
 1-El. energy change                    ....  1.000e-05 Eh
 Orbital Gradient       TolG            ....  1.000e-05
 Orbital Rotation angle TolX            ....  1.000e-05
 DIIS Error             TolErr          ....  5.000e-07


Diagonalization of the overlap matrix:
Smallest eigenvalue                        ... 3.783e-04
Time for diagonalization                   ...    0.005 sec
Threshold for overlap eigenvalues          ... 1.000e-08
Number of eigenvalues below threshold      ... 0
Time for construction of square roots      ...    0.003 sec
Total time needed                          ...    0.009 sec

---------------------
INITIAL GUESS: MOREAD
---------------------
Guess MOs are being read from file: temp.ges
Input Geometry matches current geometry (good)
Input basis set matches current basis set (good)
MOs were renormalized
MOs were reorthogonalized (Cholesky)
                      ------------------
                      INITIAL GUESS DONE (   0.0 sec)
                      ------------------
-------------------
DFT GRID GENERATION
-------------------

General Integration Accuracy     IntAcc      ...  4.340
Radial Grid Type                 RadialGrid  ... Gauss-Chebyshev
Angular Grid (max. acc.)         AngularGrid ... Lebedev-110
Angular grid pruning method      GridPruning ... 3 (G Style)
Weight generation scheme         WeightScheme... Becke
Basis function cutoff            BFCut       ...    1.0000e-11
Integration weight cutoff        WCut        ...    1.0000e-14
Grids for H and He will be reduced by one unit

# of grid points (after initial pruning)     ...  11448 (   0.0 sec)
# of grid points (after weights+screening)   ...  10905 (   0.0 sec)
nearest neighbour list constructed           ...    0.0 sec
Grid point re-assignment to atoms done       ...    0.0 sec
Grid point division into batches done        ...    0.0 sec
Reduced shell lists constructed in    0.0 sec

Total number of grid points                  ...    10905
Total number of batches                      ...      175
Average number of points per batch           ...       62
Average number of grid points per atom       ...     1090
Average number of shells per batch           ...    31.75 (46.69%)
Average number of basis functions per batch  ...    75.75 (47.34%)
Average number of large shells per batch     ...    22.75 (71.65%)
Average number of large basis fcns per batch ...    53.25 (70.30%)
Maximum spatial batch extension              ...  20.95, 17.14, 18.26 au
Average spatial batch extension              ...   0.51,  0.46,  0.48 au

Time for grid setup =    0.023 sec

--------------
SCF ITERATIONS
--------------
ITER       Energy         Delta-E        Max-DP      RMS-DP      [F,P]     Damp
               ***  Starting incremental Fock matrix formation  ***
                      *** Initiating the SOSCF procedure ***
                      *** Re-Reading the Fockian *** 
                      *** Removing any level shift *** 
ITER      Energy       Delta-E        Grad      Rot      Max-DP    RMS-DP
  0   -193.02965186 -193.0296518647  0.000001  0.000001  0.000003  0.000000
               *** Restarting incremental Fock matrix formation ***
                  ***Gradient check signals convergence***
              ***Rediagonalizing the Fockian in SOSCF/NRSCF***

               *****************************************************
               *                     SUCCESS                       *
               *           SCF CONVERGED AFTER   1 CYCLES          *
               *****************************************************

Setting up the final grid:

General Integration Accuracy     IntAcc      ...  4.670
Radial Grid Type                 RadialGrid  ... Gauss-Chebyshev
Angular Grid (max. acc.)         AngularGrid ... Lebedev-302
Angular grid pruning method      GridPruning ... 3 (G Style)
Weight generation scheme         WeightScheme... Becke
Basis function cutoff            BFCut       ...    1.0000e-11
Integration weight cutoff        WCut        ...    1.0000e-14
Grids for H and He will be reduced by one unit

# of grid points (after initial pruning)     ...  45212 (   0.0 sec)
# of grid points (after weights+screening)   ...  42641 (   0.0 sec)
nearest neighbour list constructed           ...    0.0 sec
Grid point re-assignment to atoms done       ...    0.0 sec
Grid point division into batches done        ...    0.2 sec
Reduced shell lists constructed in    0.2 sec

Total number of grid points                  ...    42641
Total number of batches                      ...      672
Average number of points per batch           ...       63
Average number of grid points per atom       ...     4264
Average number of shells per batch           ...    21.48 (31.59%)
Average number of basis functions per batch  ...    48.74 (30.46%)
Average number of large shells per batch     ...    14.78 (68.79%)
Average number of large basis fcns per batch ...    31.15 (63.91%)
Maximum spatial batch extension              ...  15.14, 13.95, 14.53 au
Average spatial batch extension              ...   0.31,  0.28,  0.29 au

Final grid set up in    0.2 sec
Final integration                            ... done (   0.0 sec)
Change in XC energy                          ...    -0.000143790
Integrated number of electrons               ...    31.999975735
Previous integrated no of electrons          ...    31.998858506

----------------
TOTAL SCF ENERGY
----------------

Total Energy       :         -193.02979566 Eh           -5252.60778 eV

Components:
Nuclear Repulsion  :          120.33800877 Eh            3274.56369 eV
Electronic Energy  :         -313.36780443 Eh           -8527.17147 eV
One Electron Energy:         -499.03273808 Eh          -13579.37116 eV
Two Electron Energy:          185.66493365 Eh            5052.19969 eV

Virial components:
Potential Energy   :         -385.15809677 Eh          -10480.68464 eV
Kinetic Energy     :          192.12830112 Eh            5228.07686 eV
Virial Ratio       :            2.00469215


DFT components:
N(Alpha)           :       15.999987867261 electrons
N(Beta)            :       15.999987867261 electrons
N(Total)           :       31.999975734521 electrons
E(X)               :      -19.372711827535 Eh       
E(C)               :       -1.042677074305 Eh       
E(XC)              :      -20.415388901839 Eh       
DFET-embed. en.    :        0.000000000000 Eh       

---------------
SCF CONVERGENCE
---------------

  Last Energy change         ...   -1.5518e-11  Tolerance :   1.0000e-08
  Last MAX-Density change    ...    1.1885e-06  Tolerance :   1.0000e-07
  Last RMS-Density change    ...    3.5868e-08  Tolerance :   5.0000e-09
  Last Orbital Gradient      ...    3.1286e-07  Tolerance :   1.0000e-05
  Last Orbital Rotation      ...    6.6445e-07  Tolerance :   1.0000e-05

             **** THE GBW FILE WAS UPDATED (temp.gbw) ****
             **** DENSITY FILE WAS UPDATED (temp.scfp) ****
             **** ENERGY FILE WAS UPDATED (temp.en.tmp) ****
             **** THE GBW FILE WAS UPDATED (temp.gbw) ****
             **** DENSITY FILE WAS UPDATED (temp.scfp) ****
----------------
ORBITAL ENERGIES
----------------

  NO   OCC          E(Eh)            E(eV) 
   0   2.0000     -19.215866      -522.8903 
   1   2.0000     -10.331141      -281.1246 
   2   2.0000     -10.229272      -278.3526 
   3   2.0000     -10.222138      -278.1585 
   4   2.0000      -1.100068       -29.9344 
   5   2.0000      -0.801048       -21.7976 
   6   2.0000      -0.736027       -20.0283 
   7   2.0000      -0.563189       -15.3252 
   8   2.0000      -0.489856       -13.3297 
   9   2.0000      -0.485837       -13.2203 
  10   2.0000      -0.485077       -13.1996 
  11   2.0000      -0.421220       -11.4620 
  12   2.0000      -0.414476       -11.2785 
  13   2.0000      -0.394604       -10.7377 
  14   2.0000      -0.385835       -10.4991 
  15   2.0000      -0.287240        -7.8162 
  16   0.0000      -0.026875        -0.7313 
  17   0.0000       0.043016         1.1705 
  18   0.0000       0.100471         2.7340 
  19   0.0000       0.106743         2.9046 
  20   0.0000       0.118404         3.2219 
  21   0.0000       0.140825         3.8320 
  22   0.0000       0.140997         3.8367 
  23   0.0000       0.147057         4.0016 
  24   0.0000       0.157817         4.2944 
  25   0.0000       0.198718         5.4074 
  26   0.0000       0.208299         5.6681 
  27   0.0000       0.226925         6.1749 
  28   0.0000       0.240378         6.5410 
  29   0.0000       0.301738         8.2107 
  30   0.0000       0.308329         8.3901 
  31   0.0000       0.314344         8.5537 
  32   0.0000       0.367245         9.9932 
  33   0.0000       0.373918        10.1748 
  34   0.0000       0.406272        11.0552 
  35   0.0000       0.414171        11.2702 
  36   0.0000       0.422376        11.4934 
  37   0.0000       0.443492        12.0680 
  38   0.0000       0.453161        12.3311 
  39   0.0000       0.465309        12.6617 
  40   0.0000       0.479820        13.0566 
  41   0.0000       0.498670        13.5695 
  42   0.0000       0.525945        14.3117 
  43   0.0000       0.569198        15.4887 
  44   0.0000       0.586116        15.9490 
  45   0.0000       0.615214        16.7408 
  46   0.0000       0.660864        17.9830 
  47   0.0000       0.663817        18.0634 
  48   0.0000       0.717654        19.5284 
  49   0.0000       0.782648        21.2969 
  50   0.0000       0.826539        22.4913 
  51   0.0000       0.831666        22.6308 
  52   0.0000       0.908004        24.7080 
  53   0.0000       0.940590        25.5948 
  54   0.0000       0.978594        26.6289 
  55   0.0000       0.985974        26.8297 
  56   0.0000       1.004314        27.3288 
  57   0.0000       1.056258        28.7422 
  58   0.0000       1.107391        30.1336 
  59   0.0000       1.109507        30.1912 
  60   0.0000       1.133259        30.8375 
  61   0.0000       1.226178        33.3660 
  62   0.0000       1.379499        37.5381 
  63   0.0000       1.406475        38.2721 
  64   0.0000       1.440586        39.2003 
  65   0.0000       1.501390        40.8549 
  66   0.0000       1.508695        41.0537 
  67   0.0000       1.519877        41.3580 
  68   0.0000       1.524372        41.4803 
  69   0.0000       1.536456        41.8091 
  70   0.0000       1.565105        42.5887 
  71   0.0000       1.570758        42.7425 
  72   0.0000       1.587830        43.2071 
  73   0.0000       1.626837        44.2685 
  74   0.0000       1.651117        44.9292 
  75   0.0000       1.705076        46.3975 
  76   0.0000       1.844535        50.1924 
  77   0.0000       1.868740        50.8510 
  78   0.0000       1.874704        51.0133 
  79   0.0000       1.954354        53.1807 
  80   0.0000       1.997837        54.3639 
  81   0.0000       2.024747        55.0962 
  82   0.0000       2.042481        55.5787 
  83   0.0000       2.089280        56.8522 
  84   0.0000       2.113503        57.5113 
  85   0.0000       2.157691        58.7137 
  86   0.0000       2.166089        58.9423 
  87   0.0000       2.199627        59.8549 
  88   0.0000       2.211680        60.1829 
  89   0.0000       2.329564        63.3907 
  90   0.0000       2.352098        64.0038 
  91   0.0000       2.353246        64.0351 
  92   0.0000       2.397693        65.2445 
  93   0.0000       2.453131        66.7531 
  94   0.0000       2.468602        67.1741 
  95   0.0000       2.519362        68.5553 
  96   0.0000       2.533419        68.9378 
  97   0.0000       2.560016        69.6616 
  98   0.0000       2.564909        69.7947 
  99   0.0000       2.656445        72.2855 
 100   0.0000       2.696373        73.3720 
 101   0.0000       2.752580        74.9015 
 102   0.0000       2.789835        75.9153 
 103   0.0000       2.807894        76.4067 
 104   0.0000       2.848849        77.5211 
 105   0.0000       2.902658        78.9853 
 106   0.0000       2.969106        80.7935 
 107   0.0000       2.977044        81.0095 
 108   0.0000       2.993702        81.4628 
 109   0.0000       3.067160        83.4617 
 110   0.0000       3.072130        83.5969 
 111   0.0000       3.094555        84.2071 
 112   0.0000       3.110000        84.6274 
 113   0.0000       3.124995        85.0354 
 114   0.0000       3.140369        85.4538 
 115   0.0000       3.227632        87.8283 
 116   0.0000       3.288328        89.4799 
 117   0.0000       3.300037        89.7986 
 118   0.0000       3.313838        90.1741 
 119   0.0000       3.370719        91.7219 
 120   0.0000       3.380960        92.0006 
 121   0.0000       3.419366        93.0457 
 122   0.0000       3.448202        93.8303 
 123   0.0000       3.488901        94.9378 
 124   0.0000       3.522814        95.8606 
 125   0.0000       3.542891        96.4070 
 126   0.0000       3.672931        99.9455 
 127   0.0000       3.762517       102.3833 
 128   0.0000       3.859180       105.0136 
 129   0.0000       3.863098       105.1202 
 130   0.0000       3.899977       106.1238 
 131   0.0000       3.975557       108.1804 
 132   0.0000       3.985451       108.4496 
 133   0.0000       4.006401       109.0197 
 134   0.0000       4.061448       110.5176 
 135   0.0000       4.326234       117.7228 
 136   0.0000       4.365534       118.7922 
 137   0.0000       4.385956       119.3479 
 138   0.0000       4.401299       119.7654 
 139   0.0000       4.443892       120.9245 
 140   0.0000       4.525117       123.1347 
 141   0.0000       4.661402       126.8432 
 142   0.0000       4.769153       129.7753 
 143   0.0000       4.784170       130.1839 
 144   0.0000       5.180092       140.9575 
 145   0.0000       5.184404       141.0748 
 146   0.0000       5.594632       152.2377 
 147   0.0000       5.678583       154.5221 
 148   0.0000       6.143519       167.1736 
 149   0.0000       6.340540       172.5349 
 150   0.0000       6.379092       173.5839 
 151   0.0000       6.502515       176.9424 
 152   0.0000       6.533292       177.7799 
 153   0.0000       6.798888       185.0072 
 154   0.0000       6.983380       190.0274 
 155   0.0000       7.065939       192.2740 
 156   0.0000      22.389967       609.2620 
 157   0.0000      22.406768       609.7191 
 158   0.0000      23.042756       627.0253 
 159   0.0000      43.902878      1194.6580 

                    ********************************
                    * MULLIKEN POPULATION ANALYSIS *
                    ********************************

-----------------------
MULLIKEN ATOMIC CHARGES
-----------------------
   0 O :   -0.432531
   1 C :    0.213696
   2 C :   -0.316530
   3 C :   -0.312953
   4 H :    0.130415
   5 H :    0.133100
   6 H :    0.146149
   7 H :    0.116678
   8 H :    0.159155
   9 H :    0.162821
Sum of atomic charges:    0.0000000

--------------------------------
MULLIKEN REDUCED ORBITAL CHARGES
--------------------------------
  0 O s       :     3.808572  s :     3.808572
      pz      :     1.594138  p :     4.592246
      px      :     1.428524
      py      :     1.569584
      dz2     :     0.006297  d :     0.029873
      dxz     :     0.004168
      dyz     :     0.007921
      dx2y2   :     0.004750
      dxy     :     0.006736
      f0      :     0.000220  f :     0.001840
      f+1     :     0.000051
      f-1     :     0.000535
      f+2     :     0.000310
      f-2     :     0.000428
      f+3     :     0.000163
      f-3     :     0.000134
  1 C s       :     3.186908  s :     3.186908
      pz      :     0.821011  p :     2.392946
      px      :     0.693680
      py      :     0.878255
      dz2     :     0.048365  d :     0.188656
      dxz     :     0.030514
      dyz     :     0.040354
      dx2y2   :     0.030620
      dxy     :     0.038802
      f0      :     0.002803  f :     0.017794
      f+1     :     0.001100
      f-1     :     0.004620
      f+2     :     0.002692
      f-2     :     0.002956
      f+3     :     0.001842
      f-3     :     0.001780
  2 C s       :     3.193411  s :     3.193411
      pz      :     0.959199  p :     3.076945
      px      :     1.053489
      py      :     1.064257
      dz2     :     0.010545  d :     0.043086
      dxz     :     0.009077
      dyz     :     0.010312
      dx2y2   :     0.004835
      dxy     :     0.008318
      f0      :     0.000679  f :     0.003088
      f+1     :     0.000788
      f-1     :     0.000687
      f+2     :     0.000149
      f-2     :     0.000172
      f+3     :     0.000211
      f-3     :     0.000402
  3 C s       :     3.188070  s :     3.188070
      pz      :     1.088655  p :     3.080386
      px      :     1.040531
      py      :     0.951199
      dz2     :     0.007299  d :     0.041476
      dxz     :     0.006546
      dyz     :     0.011281
      dx2y2   :     0.007036
      dxy     :     0.009314
      f0      :     0.000365  f :     0.003022
      f+1     :     0.000681
      f-1     :     0.000312
      f+2     :     0.000430
      f-2     :     0.000129
      f+3     :     0.000358
      f-3     :     0.000746
  4 H s       :     0.847902  s :     0.847902
      pz      :     0.004283  p :     0.021683
      px      :     0.004980
      py      :     0.012420
  5 H s       :     0.845119  s :     0.845119
      pz      :     0.005194  p :     0.021782
      px      :     0.009305
      py      :     0.007284
  6 H s       :     0.832045  s :     0.832045
      pz      :     0.008650  p :     0.021806
      px      :     0.008427
      py      :     0.004728
  7 H s       :     0.861537  s :     0.861537
      pz      :     0.011349  p :     0.021785
      px      :     0.006329
      py      :     0.004107
  8 H s       :     0.819018  s :     0.819018
      pz      :     0.004474  p :     0.021827
      px      :     0.009883
      py      :     0.007469
  9 H s       :     0.815345  s :     0.815345
      pz      :     0.007813  p :     0.021834
      px      :     0.007822
      py      :     0.006198


                     *******************************
                     * LOEWDIN POPULATION ANALYSIS *
                     *******************************

----------------------
LOEWDIN ATOMIC CHARGES
----------------------
   0 O :    0.048831
   1 C :   -0.383647
   2 C :   -0.258728
   3 C :   -0.257190
   4 H :    0.132393
   5 H :    0.140627
   6 H :    0.148138
   7 H :    0.131730
   8 H :    0.146880
   9 H :    0.150966

-------------------------------
LOEWDIN REDUCED ORBITAL CHARGES
-------------------------------
  0 O s       :     3.395000  s :     3.395000
      pz      :     1.565083  p :     4.480731
      px      :     1.337352
      py      :     1.578296
      dz2     :     0.018087  d :     0.069293
      dxz     :     0.006757
      dyz     :     0.022250
      dx2y2   :     0.014537
      dxy     :     0.007661
      f0      :     0.000819  f :     0.006146
      f+1     :     0.000222
      f-1     :     0.001899
      f+2     :     0.001377
      f-2     :     0.000850
      f+3     :     0.000350
      f-3     :     0.000629
  1 C s       :     2.779950  s :     2.779950
      pz      :     0.980638  p :     2.692931
      px      :     0.693008
      py      :     1.019286
      dz2     :     0.223481  d :     0.796136
      dxz     :     0.107149
      dyz     :     0.205968
      dx2y2   :     0.137849
      dxy     :     0.121688
      f0      :     0.017271  f :     0.114630
      f+1     :     0.006245
      f-1     :     0.033018
      f+2     :     0.017323
      f-2     :     0.020386
      f+3     :     0.008833
      f-3     :     0.011555
  2 C s       :     2.835203  s :     2.835203
      pz      :     1.043367  p :     3.181671
      px      :     1.067457
      py      :     1.070847
      dz2     :     0.058740  d :     0.219001
      dxz     :     0.055448
      dyz     :     0.039384
      dx2y2   :     0.027257
      dxy     :     0.038172
      f0      :     0.004123  f :     0.022852
      f+1     :     0.004141
      f-1     :     0.005850
      f+2     :     0.002892
      f-2     :     0.002603
      f+3     :     0.001194
      f-3     :     0.002050
  3 C s       :     2.835528  s :     2.835528
      pz      :     1.074179  p :     3.181219
      px      :     1.066031
      py      :     1.041009
      dz2     :     0.042678  d :     0.217665
      dxz     :     0.034208
      dyz     :     0.046762
      dx2y2   :     0.041483
      dxy     :     0.052534
      f0      :     0.002335  f :     0.022778
      f+1     :     0.002772
      f-1     :     0.003716
      f+2     :     0.003747
      f-2     :     0.002012
      f+3     :     0.003058
      f-3     :     0.005138
  4 H s       :     0.804869  s :     0.804869
      pz      :     0.012308  p :     0.062737
      px      :     0.014562
      py      :     0.035868
  5 H s       :     0.796803  s :     0.796803
      pz      :     0.013918  p :     0.062570
      px      :     0.026875
      py      :     0.021777
  6 H s       :     0.789157  s :     0.789157
      pz      :     0.023402  p :     0.062705
      px      :     0.024953
      py      :     0.014351
  7 H s       :     0.805721  s :     0.805721
      pz      :     0.032632  p :     0.062549
      px      :     0.018026
      py      :     0.011892
  8 H s       :     0.789753  s :     0.789753
      pz      :     0.013630  p :     0.063367
      px      :     0.030236
      py      :     0.019501
  9 H s       :     0.785654  s :     0.785654
      pz      :     0.024506  p :     0.063380
      px      :     0.022046
      py      :     0.016828


                      *****************************
                      * MAYER POPULATION ANALYSIS *
                      *****************************

  NA   - Mulliken gross atomic population
  ZA   - Total nuclear charge
  QA   - Mulliken gross atomic charge
  VA   - Mayer's total valence
  BVA  - Mayer's bonded valence
  FA   - Mayer's free valence

  ATOM       NA         ZA         QA         VA         BVA        FA
  0 O      8.4325     8.0000    -0.4325     1.9941     1.9941     0.0000
  1 C      5.7863     6.0000     0.2137     4.0817     4.0817    -0.0000
  2 C      6.3165     6.0000    -0.3165     3.7624     3.7624     0.0000
  3 C      6.3130     6.0000    -0.3130     3.7934     3.7934     0.0000
  4 H      0.8696     1.0000     0.1304     0.9968     0.9968     0.0000
  5 H      0.8669     1.0000     0.1331     0.9720     0.9720    -0.0000
  6 H      0.8539     1.0000     0.1461     0.9822     0.9822     0.0000
  7 H      0.8833     1.0000     0.1167     1.0054     1.0054     0.0000
  8 H      0.8408     1.0000     0.1592     0.9604     0.9604     0.0000
  9 H      0.8372     1.0000     0.1628     0.9724     0.9724    -0.0000

  Mayer bond orders larger than 0.100000
B(  0-O ,  1-C ) :   1.9584 B(  1-C ,  2-C ) :   1.0031 B(  1-C ,  3-C ) :   1.0292 
B(  2-C ,  4-H ) :   0.9585 B(  2-C ,  5-H ) :   0.9454 B(  2-C ,  6-H ) :   0.9387 
B(  3-C ,  7-H ) :   0.9547 B(  3-C ,  8-H ) :   0.9299 B(  3-C ,  9-H ) :   0.9303 


-------
TIMINGS
-------

Total SCF time: 0 days 0 hours 0 min 1 sec 

Total time                  ....       1.186 sec
Sum of individual times     ....       0.940 sec  ( 79.3%)

Fock matrix formation       ....       0.675 sec  ( 57.0%)
  XC integration            ....       0.060 sec  (  8.8% of F)
    Basis function eval.    ....       0.010 sec  ( 16.0% of XC)
    Density eval.           ....       0.010 sec  ( 16.5% of XC)
    XC-Functional eval.     ....       0.002 sec  (  4.0% of XC)
    XC-Potential eval.      ....       0.018 sec  ( 29.5% of XC)
Diagonalization             ....       0.005 sec  (  0.5%)
Density matrix formation    ....       0.003 sec  (  0.3%)
Population analysis         ....       0.007 sec  (  0.6%)
Initial guess               ....       0.008 sec  (  0.7%)
Orbital Transformation      ....       0.000 sec  (  0.0%)
Orbital Orthonormalization  ....       0.005 sec  (  0.4%)
DIIS solution               ....       0.001 sec  (  0.1%)
SOSCF solution              ....       0.003 sec  (  0.3%)
Grid generation             ....       0.237 sec  ( 20.0%)

-------------------------   --------------------
FINAL SINGLE POINT ENERGY      -193.029795655127
-------------------------   --------------------


                            ***************************************
                            *     ORCA property calculations      *
                            ***************************************

                                    ---------------------
                                    Active property flags
                                    ---------------------
   (+) Dipole Moment


------------------------------------------------------------------------------
                       ORCA ELECTRIC PROPERTIES CALCULATION
------------------------------------------------------------------------------

Dipole Moment Calculation                       ... on
Quadrupole Moment Calculation                   ... off
Polarizability Calculation                      ... off
GBWName                                         ... temp.gbw
Electron density file                           ... temp.scfp
The origin for moment calculation is the CENTER OF MASS  = ( 4.683313, 21.064229 24.550183)

-------------
DIPOLE MOMENT
-------------
                                X             Y             Z
Electronic contribution:      0.59980      -2.51141       2.11153
Nuclear contribution   :     -0.76435       3.76842      -3.28980
                        -----------------------------------------
Total Dipole Moment    :     -0.16455       1.25702      -1.17826
                        -----------------------------------------
Magnitude (a.u.)       :      1.73074
Magnitude (Debye)      :      4.39920



--------------------
Rotational spectrum 
--------------------
 
Rotational constants in cm-1:     0.341603     0.286936     0.165457 
Rotational constants in MHz : 10240.986954  8602.113457  4960.286229 

 Dipole components along the rotational axes: 
x,y,z [a.u.] :     0.025541    -1.726783    -0.114182 
x,y,z [Debye]:     0.064920    -4.389133    -0.290229 

 

Timings for individual modules:

Sum of individual times         ...        2.718 sec (=   0.045 min)
GTO integral calculation        ...        0.873 sec (=   0.015 min)  32.1 %
SCF iterations                  ...        1.845 sec (=   0.031 min)  67.9 %
                             ****ORCA TERMINATED NORMALLY****
TOTAL RUN TIME: 0 days 0 hours 0 minutes 4 seconds 146 msec
