
                                 *****************
                                 * O   R   C   A *
                                 *****************

           --- An Ab Initio, DFT and Semiempirical electronic structure package ---

                  #######################################################
                  #                        -***-                        #
                  #          Department of theory and spectroscopy      #
                  #               Directorship: Frank Neese             #
                  #        Max Planck Institute fuer Kohlenforschung    #
                  #                Kaiser Wilhelm Platz 1               #
                  #                 D-45470 Muelheim/Ruhr               #
                  #                      Germany                        #
                  #                                                     #
                  #                  All rights reserved                #
                  #                        -***-                        #
                  #######################################################


                         Program Version 4.2.1 -  RELEASE  -


 With contributions from (in alphabetic order):
   Daniel Aravena         : Magnetic Suceptibility
   Michael Atanasov       : Ab Initio Ligand Field Theory (pilot matlab implementation)
   Alexander A. Auer      : GIAO ZORA, VPT2
   Ute Becker             : Parallelization
   Giovanni Bistoni       : ED, misc. LED, open-shell LED, HFLD
   Martin Brehm           : Molecular dynamics
   Dmytro Bykov           : SCF Hessian
   Vijay G. Chilkuri      : MRCI spin determinant printing, contributions to CSF-ICE
   Dipayan Datta          : RHF DLPNO-CCSD density
   Achintya Kumar Dutta   : EOM-CC, STEOM-CC
   Dmitry Ganyushin       : Spin-Orbit,Spin-Spin,Magnetic field MRCI
   Miquel Garcia          : C-PCM Hessian, Gaussian charge scheme
   Yang Guo               : DLPNO-NEVPT2, CIM, IAO-localization
   Andreas Hansen         : Spin unrestricted coupled pair/coupled cluster methods
   Benjamin Helmich-Paris : CASSCF linear response (MC-RPA)
   Lee Huntington         : MR-EOM, pCC
   Robert Izsak           : Overlap fitted RIJCOSX, COSX-SCS-MP3, EOM
   Christian Kollmar      : KDIIS, OOCD, Brueckner-CCSD(T), CCSD density
   Simone Kossmann        : Meta GGA functionals, TD-DFT gradient, OOMP2, MP2 Hessian
   Martin Krupicka        : AUTO-CI
   Lucas Lang             : DCDCAS
   Dagmar Lenk            : GEPOL surface, SMD
   Dimitrios Liakos       : Extrapolation schemes; Compound Job, initial MDCI parallelization
   Dimitrios Manganas     : Further ROCIS development; embedding schemes
   Dimitrios Pantazis     : SARC Basis sets
   Taras Petrenko         : DFT Hessian,TD-DFT gradient, ASA, ECA, R-Raman, ABS, FL, XAS/XES, NRVS
   Peter Pinski           : DLPNO-MP2, DLPNO-MP2 Gradient
   Christoph Reimann      : Effective Core Potentials
   Marius Retegan         : Local ZFS, SOC
   Christoph Riplinger    : Optimizer, TS searches, QM/MM, DLPNO-CCSD(T), (RO)-DLPNO pert. Triples
   Tobias Risthaus        : Range-separated hybrids, TD-DFT gradient, RPA, STAB
   Michael Roemelt        : Original ROCIS implementation
   Masaaki Saitow         : Open-shell DLPNO-CCSD energy and density
   Barbara Sandhoefer     : DKH picture change effects
   Avijit Sen             : IP-ROCIS
   Kantharuban Sivalingam : CASSCF convergence, NEVPT2, FIC-MRCI
   Bernardo de Souza      : ESD, SOC TD-DFT
   Georgi Stoychev        : AutoAux, RI-MP2 NMR
   Willem Van den Heuvel  : Paramagnetic NMR
   Boris Wezisla          : Elementary symmetry handling
   Frank Wennmohs         : Technical directorship


 We gratefully acknowledge several colleagues who have allowed us to
 interface, adapt or use parts of their codes:
   Stefan Grimme, W. Hujo, H. Kruse,             : VdW corrections, initial TS optimization,
                  C. Bannwarth                     DFT functionals, gCP, sTDA/sTD-DF
   Ed Valeev, F. Pavosevic, A. Kumar             : LibInt (2-el integral package), F12 methods
   Garnet Chan, S. Sharma, J. Yang, R. Olivares  : DMRG
   Ulf Ekstrom                                   : XCFun DFT Library
   Mihaly Kallay                                 : mrcc  (arbitrary order and MRCC methods)
   Andreas Klamt, Michael Diedenhofen            : otool_cosmo (COSMO solvation model)
   Jiri Pittner, Ondrej Demel                    : Mk-CCSD
   Frank Weinhold                                : gennbo (NPA and NBO analysis)
   Christopher J. Cramer and Donald G. Truhlar   : smd solvation model
   Lars Goerigk                                  : TD-DFT with DH, B97 family of functionals
   V. Asgeirsson, H. Jonsson                     : NEB implementation
   FAccTs GmbH                                   : IRC, NEB, NEB-TS, Multilevel, MM, QM/MM, CI optimization
   S Lehtola, MJT Oliveira, MAL Marques          : LibXC Library


 Your calculation uses the libint2 library for the computation of 2-el integrals
 For citations please refer to: http://libint.valeyev.net

 Your ORCA version has been built with support for libXC version: 4.2.3
 For citations please refer to: https://tddft.org/programs/libxc/

 This ORCA versions uses:
   CBLAS   interface :  Fast vector & matrix operations
   LAPACKE interface :  Fast linear algebra routines
   SCALAPACK package :  Parallel linear algebra routines




***************************************
The coordinates will be read from file: acetoneOpt.xyz
***************************************


----- Orbital basis set information -----
Your calculation utilizes the basis: def2-TZVP
   F. Weigend and R. Ahlrichs, Phys. Chem. Chem. Phys. 7, 3297 (2005).

================================================================================
                                        WARNINGS
                       Please study these warnings very carefully!
================================================================================


INFO   : the flag for use of LIBINT has been found!

================================================================================
                                       INPUT FILE
================================================================================
NAME = acetoneCHELPG.inp
|  1> !PBE0 def2-TZVP CHELPG
|  2> 
|  3> *xyzfile 0 1 acetoneOpt.xyz
|  4> 
|  5> %pal
|  6>  nprocs 26
|  7> end
|  8> 
|  9> %elprop
| 10> Polar 1
| 11> end
| 12> 
| 13> 
| 14>                          ****END OF INPUT****
================================================================================

                       ****************************
                       * Single Point Calculation *
                       ****************************

---------------------------------
CARTESIAN COORDINATES (ANGSTROEM)
---------------------------------
  O      0.034238   -1.051611    0.036820
  C     -0.880485   -1.818628   -0.132566
  C     -1.431699   -2.656658    0.991522
  C     -1.532068   -1.991890   -1.479901
  H     -0.977681   -2.362060    1.935600
  H     -2.519642   -2.562253    1.050554
  H     -1.215881   -3.712630    0.799843
  H     -0.989453   -1.424280   -2.233201
  H     -2.567508   -1.641176   -1.435656
  H     -1.568821   -3.048813   -1.758016

----------------------------
CARTESIAN COORDINATES (A.U.)
----------------------------
  NO LB      ZA    FRAG     MASS         X           Y           Z
   0 O     8.0000    0    15.999    0.064700   -1.987257    0.069579
   1 C     6.0000    0    12.011   -1.663876   -3.436709   -0.250512
   2 C     6.0000    0    12.011   -2.705519   -5.020356    1.873704
   3 C     6.0000    0    12.011   -2.895189   -3.764126   -2.796607
   4 H     1.0000    0     1.008   -1.847550   -4.463646    3.657755
   5 H     1.0000    0     1.008   -4.761433   -4.841957    1.985259
   6 H     1.0000    0     1.008   -2.297682   -7.015854    1.511485
   7 H     1.0000    0     1.008   -1.869795   -2.691499   -4.220138
   8 H     1.0000    0     1.008   -4.851886   -3.101372   -2.712996
   9 H     1.0000    0     1.008   -2.964641   -5.761422   -3.322169

--------------------------------
INTERNAL COORDINATES (ANGSTROEM)
--------------------------------
 O      0   0   0     0.000000000000     0.00000000     0.00000000
 C      1   0   0     1.205704838806     0.00000000     0.00000000
 C      2   1   0     1.506553224109   121.77751207     0.00000000
 C      2   1   3     1.506616274789   121.79621799   180.09349336
 H      3   2   1     1.088211894486   110.12498466     7.24840230
 H      3   2   1     1.093625221678   110.86909159   129.44071606
 H      3   2   1     1.094712362178   109.49936132   247.01700657
 H      4   2   1     1.088151285452   110.08655295     6.00350448
 H      4   2   1     1.094117421187   109.64919460   245.55770819
 H      4   2   1     1.093519966889   110.67884917   128.04341992

---------------------------
INTERNAL COORDINATES (A.U.)
---------------------------
 O      0   0   0     0.000000000000     0.00000000     0.00000000
 C      1   0   0     2.278451943687     0.00000000     0.00000000
 C      2   1   0     2.846972999743   121.77751207     0.00000000
 C      2   1   3     2.847092148260   121.79621799   180.09349336
 H      3   2   1     2.056422456254   110.12498466     7.24840230
 H      3   2   1     2.066652162121   110.86909159   129.44071606
 H      3   2   1     2.068706559935   109.49936132   247.01700657
 H      4   2   1     2.056307921778   110.08655295     6.00350448
 H      4   2   1     2.067582284395   109.64919460   245.55770819
 H      4   2   1     2.066453259395   110.67884917   128.04341992

---------------------
BASIS SET INFORMATION
---------------------
There are 3 groups of distinct atoms

 Group   1 Type O   : 11s6p2d1f contracted to 5s3p2d1f pattern {62111/411/11/1}
 Group   2 Type C   : 11s6p2d1f contracted to 5s3p2d1f pattern {62111/411/11/1}
 Group   3 Type H   : 5s1p contracted to 3s1p pattern {311/1}

Atom   0O    basis set group =>   1
Atom   1C    basis set group =>   2
Atom   2C    basis set group =>   2
Atom   3C    basis set group =>   2
Atom   4H    basis set group =>   3
Atom   5H    basis set group =>   3
Atom   6H    basis set group =>   3
Atom   7H    basis set group =>   3
Atom   8H    basis set group =>   3
Atom   9H    basis set group =>   3


           ************************************************************
           *        Program running with 26 parallel MPI-processes    *
           *              working on a common directory               *
           ************************************************************
------------------------------------------------------------------------------
                           ORCA GTO INTEGRAL CALCULATION
------------------------------------------------------------------------------

                         BASIS SET STATISTICS AND STARTUP INFO

 # of primitive gaussian shells          ...  116
 # of primitive gaussian functions       ...  232
 # of contracted shells                  ...   68
 # of contracted basis functions         ...  160
 Highest angular momentum                ...    3
 Maximum contraction depth               ...    6
 Integral package used                   ... LIBINT
 Integral threshhold            Thresh   ...  1.000e-10
 Primitive cut-off              TCut     ...  1.000e-11


------------------------------ INTEGRAL EVALUATION ----------------------------


 * One electron integrals 
 Pre-screening matrix                    ... done
 Shell pair data                         ... done (   0.001 sec)



           ************************************************************
           *        Program running with 26 parallel MPI-processes    *
           *              working on a common directory               *
           ************************************************************
-------------------------------------------------------------------------------
                                 ORCA SCF
-------------------------------------------------------------------------------

------------
SCF SETTINGS
------------
Hamiltonian:
 Density Functional     Method          .... DFT(GTOs)
 Exchange Functional    Exchange        .... PBE
   PBE kappa parameter   XKappa         ....  0.804000
   PBE mue parameter    XMuePBE         ....  0.219520
 Correlation Functional Correlation     .... PBE
   PBE beta parameter  CBetaPBE         ....  0.066725
 LDA part of GGA corr.  LDAOpt          .... PW91-LDA
 Gradients option       PostSCFGGA      .... off
 Hybrid DFT is turned on
   Fraction HF Exchange ScalHFX         ....  0.250000
   Scaling of DF-GGA-X  ScalDFX         ....  0.750000
   Scaling of DF-GGA-C  ScalDFC         ....  1.000000
   Scaling of DF-LDA-C  ScalLDAC        ....  1.000000
   Perturbative correction              ....  0.000000
   Density functional embedding theory  .... OFF
   NL short-range parameter             ....  6.900000


General Settings:
 Integral files         IntName         .... acetoneCHELPG
 Hartree-Fock type      HFTyp           .... RHF
 Total Charge           Charge          ....    0
 Multiplicity           Mult            ....    1
 Number of Electrons    NEL             ....   32
 Basis Dimension        Dim             ....  160
 Nuclear Repulsion      ENuc            ....    119.8955538042 Eh

Convergence Acceleration:
 DIIS                   CNVDIIS         .... on
   Start iteration      DIISMaxIt       ....    12
   Startup error        DIISStart       ....  0.200000
   # of expansion vecs  DIISMaxEq       ....     5
   Bias factor          DIISBfac        ....   1.050
   Max. coefficient     DIISMaxC        ....  10.000
 Newton-Raphson         CNVNR           .... off
 SOSCF                  CNVSOSCF        .... on
   Start iteration      SOSCFMaxIt      ....   150
   Startup grad/error   SOSCFStart      ....  0.003300
 Level Shifting         CNVShift        .... on
   Level shift para.    LevelShift      ....    0.2500
   Turn off err/grad.   ShiftErr        ....    0.0010
 Zerner damping         CNVZerner       .... off
 Static damping         CNVDamp         .... on
   Fraction old density DampFac         ....    0.7000
   Max. Damping (<1)    DampMax         ....    0.9800
   Min. Damping (>=0)   DampMin         ....    0.0000
   Turn off err/grad.   DampErr         ....    0.1000
 Fernandez-Rico         CNVRico         .... off

SCF Procedure:
 Maximum # iterations   MaxIter         ....   125
 SCF integral mode      SCFMode         .... Direct
   Integral package                     .... LIBINT
 Reset frequency        DirectResetFreq ....    20
 Integral Threshold     Thresh          ....  1.000e-10 Eh
 Primitive CutOff       TCut            ....  1.000e-11 Eh

Convergence Tolerance:
 Convergence Check Mode ConvCheckMode   .... Total+1el-Energy
 Convergence forced     ConvForced      .... 0
 Energy Change          TolE            ....  1.000e-06 Eh
 1-El. energy change                    ....  1.000e-03 Eh
 Orbital Gradient       TolG            ....  5.000e-05
 Orbital Rotation angle TolX            ....  5.000e-05
 DIIS Error             TolErr          ....  1.000e-06


Diagonalization of the overlap matrix:
Smallest eigenvalue                        ... 3.783e-04
Time for diagonalization                   ...    0.005 sec
Threshold for overlap eigenvalues          ... 1.000e-08
Number of eigenvalues below threshold      ... 0
Time for construction of square roots      ...    0.003 sec
Total time needed                          ...    0.008 sec

-------------------
DFT GRID GENERATION
-------------------

General Integration Accuracy     IntAcc      ...  4.340
Radial Grid Type                 RadialGrid  ... Gauss-Chebyshev
Angular Grid (max. acc.)         AngularGrid ... Lebedev-110
Angular grid pruning method      GridPruning ... 3 (G Style)
Weight generation scheme         WeightScheme... Becke
Basis function cutoff            BFCut       ...    1.0000e-10
Integration weight cutoff        WCut        ...    1.0000e-14
Grids for H and He will be reduced by one unit

# of grid points (after initial pruning)     ...  11448 (   0.0 sec)
# of grid points (after weights+screening)   ...  10920 (   0.0 sec)
nearest neighbour list constructed           ...    0.0 sec
Grid point re-assignment to atoms done       ...    0.0 sec
Grid point division into batches done        ...    0.0 sec
Reduced shell lists constructed in    0.0 sec

Total number of grid points                  ...    10920
Total number of batches                      ...      175
Average number of points per batch           ...       62
Average number of grid points per atom       ...     1092
Average number of shells per batch           ...    28.00 (41.18%)
Average number of basis functions per batch  ...    65.50 (40.94%)
Average number of large shells per batch     ...    19.75 (70.54%)
Average number of large basis fcns per batch ...    46.00 (70.23%)
Maximum spatial batch extension              ...  19.49, 15.53, 22.03 au
Average spatial batch extension              ...   0.47,  0.45,  0.48 au

Time for grid setup =    0.027 sec

------------------------------
INITIAL GUESS: MODEL POTENTIAL
------------------------------
Loading Hartree-Fock densities                     ... done
Calculating cut-offs                               ... done
Setting up the integral package                    ... done
Initializing the effective Hamiltonian             ... done
Starting the Coulomb interaction                   ... done (   0.0 sec)
Reading the grid                                   ... done
Mapping shells                                     ... done
Starting the XC term evaluation                    ... done (   0.0 sec)
  promolecular density results
     # of electrons  =     31.999798465
     EX              =    -25.233661646
     EC              =     -1.034118855
     EX+EC           =    -26.267780502
Transforming the Hamiltonian                       ... done (   0.0 sec)
Diagonalizing the Hamiltonian                      ... done (   0.0 sec)
Back transforming the eigenvectors                 ... done (   0.0 sec)
Now organizing SCF variables                       ... done
                      ------------------
                      INITIAL GUESS DONE (   0.2 sec)
                      ------------------
--------------
SCF ITERATIONS
--------------
ITER       Energy         Delta-E        Max-DP      RMS-DP      [F,P]     Damp
               ***  Starting incremental Fock matrix formation  ***
  0   -192.8345052101   0.000000000000 0.11402219  0.00243048  0.2495784 0.7000
  1   -192.9138208520  -0.079315641928 0.11108124  0.00210318  0.0987367 0.7000
                               ***Turning on DIIS***
  2   -192.9443321013  -0.030511249288 0.13218922  0.00292861  0.0447946 0.0000
  3   -192.9914553886  -0.047123287324 0.11241942  0.00191298  0.0567952 0.0000
  4   -193.0022497531  -0.010794364490 0.03312608  0.00058653  0.0144209 0.0000
  5   -193.0030556016  -0.000805848533 0.01543696  0.00026705  0.0043846 0.0000
                      *** Initiating the SOSCF procedure ***
                           *** Shutting down DIIS ***
                      *** Re-Reading the Fockian *** 
                      *** Removing any level shift *** 
ITER      Energy       Delta-E        Grad      Rot      Max-DP    RMS-DP
  6   -193.00309134  -0.0000357354  0.000396  0.000396  0.010527  0.000184
               *** Restarting incremental Fock matrix formation ***
  7   -193.00309365  -0.0000023178  0.000096  0.000270  0.000163  0.000006
  8   -193.00309354   0.0000001164  0.000183  0.000182  0.000406  0.000008
  9   -193.00309374  -0.0000002018  0.000014  0.000026  0.000032  0.000001
                 **** Energy Check signals convergence ****
              ***Rediagonalizing the Fockian in SOSCF/NRSCF***

               *****************************************************
               *                     SUCCESS                       *
               *           SCF CONVERGED AFTER  10 CYCLES          *
               *****************************************************

Setting up the final grid:

General Integration Accuracy     IntAcc      ...  4.670
Radial Grid Type                 RadialGrid  ... Gauss-Chebyshev
Angular Grid (max. acc.)         AngularGrid ... Lebedev-302
Angular grid pruning method      GridPruning ... 3 (G Style)
Weight generation scheme         WeightScheme... Becke
Basis function cutoff            BFCut       ...    1.0000e-10
Integration weight cutoff        WCut        ...    1.0000e-14
Grids for H and He will be reduced by one unit

# of grid points (after initial pruning)     ...  45212 (   0.0 sec)
# of grid points (after weights+screening)   ...  42622 (   0.0 sec)
nearest neighbour list constructed           ...    0.0 sec
Grid point re-assignment to atoms done       ...    0.0 sec
Grid point division into batches done        ...    0.2 sec
Reduced shell lists constructed in    0.2 sec

Total number of grid points                  ...    42622
Total number of batches                      ...      672
Average number of points per batch           ...       63
Average number of grid points per atom       ...     4262
Average number of shells per batch           ...    17.52 (25.76%)
Average number of basis functions per batch  ...    37.89 (23.68%)
Average number of large shells per batch     ...    11.56 (65.96%)
Average number of large basis fcns per batch ...    23.33 (61.58%)
Maximum spatial batch extension              ...  15.58, 14.28, 15.53 au
Average spatial batch extension              ...   0.31,  0.30,  0.31 au

Final grid set up in    0.2 sec
Final integration                            ... done (   0.1 sec)
Change in XC energy                          ...     0.000092279
Integrated number of electrons               ...    31.999976245
Previous integrated no of electrons          ...    32.000367797

----------------
TOTAL SCF ENERGY
----------------

Total Energy       :         -193.00300146 Eh           -5251.87867 eV

Components:
Nuclear Repulsion  :          119.89555380 Eh            3262.52388 eV
Electronic Energy  :         -312.89855526 Eh           -8514.40255 eV
One Electron Energy:         -498.40509105 Eh          -13562.29202 eV
Two Electron Energy:          185.50653578 Eh            5047.88947 eV

Virial components:
Potential Energy   :         -385.12964390 Eh          -10479.91040 eV
Kinetic Energy     :          192.12664244 Eh            5228.03173 eV
Virial Ratio       :            2.00456136


DFT components:
N(Alpha)           :       15.999988122648 electrons
N(Beta)            :       15.999988122648 electrons
N(Total)           :       31.999976245295 electrons
E(X)               :      -19.367306065244 Eh       
E(C)               :       -1.042402699574 Eh       
E(XC)              :      -20.409708764817 Eh       
DFET-embed. en.    :        0.000000000000 Eh       

---------------
SCF CONVERGENCE
---------------

  Last Energy change         ...    8.4734e-10  Tolerance :   1.0000e-06
  Last MAX-Density change    ...    1.8787e-05  Tolerance :   1.0000e-05
  Last RMS-Density change    ...    5.4890e-07  Tolerance :   1.0000e-06
  Last Orbital Gradient      ...    1.6295e-05  Tolerance :   5.0000e-05
  Last Orbital Rotation      ...    1.4208e-05  Tolerance :   5.0000e-05

             **** THE GBW FILE WAS UPDATED (acetoneCHELPG.gbw) ****
             **** DENSITY FILE WAS UPDATED (acetoneCHELPG.scfp) ****
             **** ENERGY FILE WAS UPDATED (acetoneCHELPG.en.tmp) ****
             **** THE GBW FILE WAS UPDATED (acetoneCHELPG.gbw) ****
             **** DENSITY FILE WAS UPDATED (acetoneCHELPG.scfp) ****
----------------
ORBITAL ENERGIES
----------------

  NO   OCC          E(Eh)            E(eV) 
   0   2.0000     -19.192436      -522.2527 
   1   2.0000     -10.313411      -280.6422 
   2   2.0000     -10.226968      -278.2899 
   3   2.0000     -10.226623      -278.2805 
   4   2.0000      -1.074768       -29.2459 
   5   2.0000      -0.797439       -21.6994 
   6   2.0000      -0.736073       -20.0296 
   7   2.0000      -0.552438       -15.0326 
   8   2.0000      -0.480835       -13.0842 
   9   2.0000      -0.479223       -13.0403 
  10   2.0000      -0.470969       -12.8157 
  11   2.0000      -0.418501       -11.3880 
  12   2.0000      -0.412568       -11.2266 
  13   2.0000      -0.394532       -10.7358 
  14   2.0000      -0.367549       -10.0015 
  15   2.0000      -0.265141        -7.2148 
  16   0.0000      -0.011482        -0.3124 
  17   0.0000       0.036363         0.9895 
  18   0.0000       0.090023         2.4496 
  19   0.0000       0.104847         2.8530 
  20   0.0000       0.108370         2.9489 
  21   0.0000       0.133652         3.6369 
  22   0.0000       0.137683         3.7465 
  23   0.0000       0.140961         3.8358 
  24   0.0000       0.171026         4.6539 
  25   0.0000       0.188842         5.1387 
  26   0.0000       0.211627         5.7587 
  27   0.0000       0.223556         6.0833 
  28   0.0000       0.227201         6.1824 
  29   0.0000       0.295488         8.0406 
  30   0.0000       0.304780         8.2935 
  31   0.0000       0.311834         8.4854 
  32   0.0000       0.376056        10.2330 
  33   0.0000       0.380355        10.3500 
  34   0.0000       0.412496        11.2246 
  35   0.0000       0.419560        11.4168 
  36   0.0000       0.438987        11.9455 
  37   0.0000       0.443366        12.0646 
  38   0.0000       0.453418        12.3381 
  39   0.0000       0.464018        12.6266 
  40   0.0000       0.465666        12.6714 
  41   0.0000       0.495808        13.4916 
  42   0.0000       0.564220        15.3532 
  43   0.0000       0.572635        15.5822 
  44   0.0000       0.588073        16.0023 
  45   0.0000       0.616901        16.7867 
  46   0.0000       0.664960        18.0945 
  47   0.0000       0.677012        18.4224 
  48   0.0000       0.737880        20.0787 
  49   0.0000       0.801085        21.7986 
  50   0.0000       0.824961        22.4483 
  51   0.0000       0.839993        22.8574 
  52   0.0000       0.907096        24.6833 
  53   0.0000       0.947297        25.7773 
  54   0.0000       0.977490        26.5989 
  55   0.0000       0.985288        26.8110 
  56   0.0000       1.002937        27.2913 
  57   0.0000       1.053759        28.6742 
  58   0.0000       1.112969        30.2854 
  59   0.0000       1.115569        30.3562 
  60   0.0000       1.139615        31.0105 
  61   0.0000       1.233898        33.5761 
  62   0.0000       1.398937        38.0670 
  63   0.0000       1.406415        38.2705 
  64   0.0000       1.449709        39.4486 
  65   0.0000       1.502505        40.8852 
  66   0.0000       1.509423        41.0735 
  67   0.0000       1.518872        41.3306 
  68   0.0000       1.531426        41.6722 
  69   0.0000       1.536684        41.8153 
  70   0.0000       1.564033        42.5595 
  71   0.0000       1.566700        42.6321 
  72   0.0000       1.584539        43.1175 
  73   0.0000       1.639434        44.6113 
  74   0.0000       1.657823        45.1117 
  75   0.0000       1.709254        46.5112 
  76   0.0000       1.854701        50.4690 
  77   0.0000       1.869308        50.8665 
  78   0.0000       1.880959        51.1835 
  79   0.0000       1.959978        53.3337 
  80   0.0000       2.014057        54.8053 
  81   0.0000       2.025187        55.1081 
  82   0.0000       2.046288        55.6823 
  83   0.0000       2.092482        56.9393 
  84   0.0000       2.118852        57.6569 
  85   0.0000       2.173621        59.1472 
  86   0.0000       2.174926        59.1827 
  87   0.0000       2.203699        59.9657 
  88   0.0000       2.216494        60.3139 
  89   0.0000       2.329825        63.3978 
  90   0.0000       2.350787        63.9682 
  91   0.0000       2.353386        64.0389 
  92   0.0000       2.395745        65.1915 
  93   0.0000       2.458904        66.9102 
  94   0.0000       2.481693        67.5303 
  95   0.0000       2.523375        68.6645 
  96   0.0000       2.528214        68.7962 
  97   0.0000       2.560510        69.6750 
  98   0.0000       2.562773        69.7366 
  99   0.0000       2.658331        72.3369 
 100   0.0000       2.706511        73.6479 
 101   0.0000       2.758508        75.0628 
 102   0.0000       2.787458        75.8506 
 103   0.0000       2.813781        76.5669 
 104   0.0000       2.850202        77.5579 
 105   0.0000       2.913716        79.2862 
 106   0.0000       2.975921        80.9789 
 107   0.0000       2.980946        81.1157 
 108   0.0000       3.013374        81.9981 
 109   0.0000       3.074686        83.6665 
 110   0.0000       3.081352        83.8478 
 111   0.0000       3.103434        84.4487 
 112   0.0000       3.111227        84.6608 
 113   0.0000       3.127255        85.0969 
 114   0.0000       3.146128        85.6105 
 115   0.0000       3.231666        87.9381 
 116   0.0000       3.292093        89.5824 
 117   0.0000       3.304388        89.9170 
 118   0.0000       3.316534        90.2475 
 119   0.0000       3.377531        91.9073 
 120   0.0000       3.385974        92.1370 
 121   0.0000       3.426690        93.2450 
 122   0.0000       3.455765        94.0361 
 123   0.0000       3.493754        95.0699 
 124   0.0000       3.530644        96.0737 
 125   0.0000       3.543685        96.4286 
 126   0.0000       3.679114       100.1138 
 127   0.0000       3.767159       102.5096 
 128   0.0000       3.865316       105.1806 
 129   0.0000       3.866821       105.2216 
 130   0.0000       3.902515       106.1928 
 131   0.0000       3.983840       108.4058 
 132   0.0000       3.988366       108.5290 
 133   0.0000       4.013098       109.2019 
 134   0.0000       4.069351       110.7327 
 135   0.0000       4.324925       117.6872 
 136   0.0000       4.367668       118.8503 
 137   0.0000       4.385784       119.3432 
 138   0.0000       4.406213       119.8991 
 139   0.0000       4.449348       121.0729 
 140   0.0000       4.533843       123.3721 
 141   0.0000       4.668284       127.0305 
 142   0.0000       4.774521       129.9213 
 143   0.0000       4.793141       130.4280 
 144   0.0000       5.210332       141.7803 
 145   0.0000       5.213942       141.8786 
 146   0.0000       5.622529       152.9968 
 147   0.0000       5.705622       155.2579 
 148   0.0000       6.171037       167.9225 
 149   0.0000       6.366759       173.2483 
 150   0.0000       6.408318       174.3792 
 151   0.0000       6.530934       177.7157 
 152   0.0000       6.556430       178.4095 
 153   0.0000       6.830092       185.8563 
 154   0.0000       7.014291       190.8686 
 155   0.0000       7.096247       193.0987 
 156   0.0000      22.390204       609.2684 
 157   0.0000      22.404459       609.6563 
 158   0.0000      23.059091       627.4698 
 159   0.0000      43.927361      1195.3243 

                    ********************************
                    * MULLIKEN POPULATION ANALYSIS *
                    ********************************

-----------------------
MULLIKEN ATOMIC CHARGES
-----------------------
   0 O :   -0.288418
   1 C :    0.176100
   2 C :   -0.362940
   3 C :   -0.339730
   4 H :    0.140517
   5 H :    0.138086
   6 H :    0.137568
   7 H :    0.139981
   8 H :    0.130888
   9 H :    0.127947
Sum of atomic charges:   -0.0000000

--------------------------------
MULLIKEN REDUCED ORBITAL CHARGES
--------------------------------
  0 O s       :     3.809834  s :     3.809834
      pz      :     1.770571  p :     4.444683
      px      :     1.325439
      py      :     1.348674
      dz2     :     0.003291  d :     0.032053
      dxz     :     0.005233
      dyz     :     0.003994
      dx2y2   :     0.011662
      dxy     :     0.007874
      f0      :     0.000260  f :     0.001847
      f+1     :     0.000226
      f-1     :     0.000177
      f+2     :     0.000051
      f-2     :     0.000315
      f+3     :     0.000478
      f-3     :     0.000340
  1 C s       :     3.178464  s :     3.178464
      pz      :     0.919599  p :     2.409928
      px      :     0.747620
      py      :     0.742709
      dz2     :     0.036417  d :     0.217628
      dxz     :     0.059100
      dyz     :     0.047244
      dx2y2   :     0.051970
      dxy     :     0.022897
      f0      :     0.003661  f :     0.017881
      f+1     :     0.001747
      f-1     :     0.001994
      f+2     :     0.001321
      f-2     :     0.003664
      f+3     :     0.003131
      f-3     :     0.002363
  2 C s       :     3.198659  s :     3.198659
      pz      :     1.027293  p :     3.113551
      px      :     1.050568
      py      :     1.035691
      dz2     :     0.015446  d :     0.047569
      dxz     :     0.007182
      dyz     :     0.007788
      dx2y2   :     0.013559
      dxy     :     0.003594
      f0      :     0.000347  f :     0.003161
      f+1     :     0.000583
      f-1     :     0.000669
      f+2     :     0.000397
      f-2     :     0.000293
      f+3     :     0.000539
      f-3     :     0.000331
  3 C s       :     3.186299  s :     3.186299
      pz      :     0.988385  p :     3.105014
      px      :     1.057326
      py      :     1.059303
      dz2     :     0.013188  d :     0.045290
      dxz     :     0.008747
      dyz     :     0.009543
      dx2y2   :     0.010046
      dxy     :     0.003767
      f0      :     0.000611  f :     0.003127
      f+1     :     0.000758
      f-1     :     0.000376
      f+2     :     0.000347
      f-2     :     0.000430
      f+3     :     0.000085
      f-3     :     0.000520
  4 H s       :     0.837662  s :     0.837662
      pz      :     0.011167  p :     0.021821
      px      :     0.005856
      py      :     0.004799
  5 H s       :     0.840699  s :     0.840699
      pz      :     0.004487  p :     0.021215
      px      :     0.012087
      py      :     0.004642
  6 H s       :     0.841118  s :     0.841118
      pz      :     0.004515  p :     0.021314
      px      :     0.004799
      py      :     0.012000
  7 H s       :     0.838203  s :     0.838203
      pz      :     0.008613  p :     0.021815
      px      :     0.006334
      py      :     0.006868
  8 H s       :     0.847705  s :     0.847705
      pz      :     0.004493  p :     0.021407
      px      :     0.011624
      py      :     0.005290
  9 H s       :     0.850522  s :     0.850522
      pz      :     0.005210  p :     0.021531
      px      :     0.004634
      py      :     0.011687


                     *******************************
                     * LOEWDIN POPULATION ANALYSIS *
                     *******************************

----------------------
LOEWDIN ATOMIC CHARGES
----------------------
   0 O :    0.132486
   1 C :   -0.397563
   2 C :   -0.275362
   3 C :   -0.273777
   4 H :    0.133140
   5 H :    0.135502
   6 H :    0.139117
   7 H :    0.133166
   8 H :    0.138282
   9 H :    0.135010

-------------------------------
LOEWDIN REDUCED ORBITAL CHARGES
-------------------------------
  0 O s       :     3.398851  s :     3.398851
      pz      :     1.633901  p :     4.391829
      px      :     1.389077
      py      :     1.368851
      dz2     :     0.008960  d :     0.070654
      dxz     :     0.014952
      dyz     :     0.010104
      dx2y2   :     0.013559
      dxy     :     0.023079
      f0      :     0.000829  f :     0.006180
      f+1     :     0.000745
      f-1     :     0.000568
      f+2     :     0.000123
      f-2     :     0.001394
      f+3     :     0.001165
      f-3     :     0.001355
  1 C s       :     2.775508  s :     2.775508
      pz      :     1.011881  p :     2.713200
      px      :     0.867320
      py      :     0.833999
      dz2     :     0.147143  d :     0.796249
      dxz     :     0.211608
      dyz     :     0.166593
      dx2y2   :     0.140827
      dxy     :     0.130079
      f0      :     0.025188  f :     0.112606
      f+1     :     0.011110
      f-1     :     0.013612
      f+2     :     0.008107
      f-2     :     0.023007
      f+3     :     0.016919
      f-3     :     0.014663
  2 C s       :     2.836629  s :     2.836629
      pz      :     1.057637  p :     3.190061
      px      :     1.067079
      py      :     1.065345
      dz2     :     0.071882  d :     0.225565
      dxz     :     0.035515
      dyz     :     0.038715
      dx2y2   :     0.061809
      dxy     :     0.017643
      f0      :     0.002517  f :     0.023108
      f+1     :     0.004021
      f-1     :     0.004369
      f+2     :     0.002374
      f-2     :     0.004501
      f+3     :     0.003219
      f-3     :     0.002107
  3 C s       :     2.836454  s :     2.836454
      pz      :     1.050447  p :     3.189039
      px      :     1.070246
      py      :     1.068346
      dz2     :     0.065128  d :     0.225126
      dxz     :     0.047247
      dyz     :     0.047959
      dx2y2   :     0.046165
      dxy     :     0.018627
      f0      :     0.004439  f :     0.023157
      f+1     :     0.004787
      f-1     :     0.003372
      f+2     :     0.002197
      f-2     :     0.004238
      f+3     :     0.000997
      f-3     :     0.003127
  4 H s       :     0.804012  s :     0.804012
      pz      :     0.030853  p :     0.062848
      px      :     0.017309
      py      :     0.014686
  5 H s       :     0.801928  s :     0.801928
      pz      :     0.013036  p :     0.062569
      px      :     0.035513
      py      :     0.014021
  6 H s       :     0.798267  s :     0.798267
      pz      :     0.013982  p :     0.062617
      px      :     0.014734
      py      :     0.033901
  7 H s       :     0.803973  s :     0.803973
      pz      :     0.023680  p :     0.062861
      px      :     0.019256
      py      :     0.019925
  8 H s       :     0.799056  s :     0.799056
      pz      :     0.013275  p :     0.062662
      px      :     0.033299
      py      :     0.016088
  9 H s       :     0.802435  s :     0.802435
      pz      :     0.014288  p :     0.062555
      px      :     0.013926
      py      :     0.034341


                      *****************************
                      * MAYER POPULATION ANALYSIS *
                      *****************************

  NA   - Mulliken gross atomic population
  ZA   - Total nuclear charge
  QA   - Mulliken gross atomic charge
  VA   - Mayer's total valence
  BVA  - Mayer's bonded valence
  FA   - Mayer's free valence

  ATOM       NA         ZA         QA         VA         BVA        FA
  0 O      8.2884     8.0000    -0.2884     2.1616     2.1616    -0.0000
  1 C      5.8239     6.0000     0.1761     4.1535     4.1535    -0.0000
  2 C      6.3629     6.0000    -0.3629     3.7469     3.7469    -0.0000
  3 C      6.3397     6.0000    -0.3397     3.7408     3.7408     0.0000
  4 H      0.8595     1.0000     0.1405     0.9983     0.9983     0.0000
  5 H      0.8619     1.0000     0.1381     0.9690     0.9690     0.0000
  6 H      0.8624     1.0000     0.1376     0.9731     0.9731    -0.0000
  7 H      0.8600     1.0000     0.1400     0.9974     0.9974     0.0000
  8 H      0.8691     1.0000     0.1309     0.9766     0.9766    -0.0000
  9 H      0.8721     1.0000     0.1279     0.9728     0.9728     0.0000

  Mayer bond orders larger than 0.100000
B(  0-O ,  1-C ) :   2.1427 B(  1-C ,  2-C ) :   0.9858 B(  1-C ,  3-C ) :   0.9839 
B(  2-C ,  4-H ) :   0.9655 B(  2-C ,  5-H ) :   0.9437 B(  2-C ,  6-H ) :   0.9420 
B(  3-C ,  7-H ) :   0.9659 B(  3-C ,  8-H ) :   0.9402 B(  3-C ,  9-H ) :   0.9432 


-------
TIMINGS
-------

Total SCF time: 0 days 0 hours 0 min 4 sec 

Total time                  ....       4.165 sec
Sum of individual times     ....       3.896 sec  ( 93.5%)

Fock matrix formation       ....       3.387 sec  ( 81.3%)
  XC integration            ....       0.273 sec  (  8.1% of F)
    Basis function eval.    ....       0.026 sec  (  9.4% of XC)
    Density eval.           ....       0.024 sec  (  8.7% of XC)
    XC-Functional eval.     ....       0.006 sec  (  2.3% of XC)
    XC-Potential eval.      ....       0.040 sec  ( 14.8% of XC)
Diagonalization             ....       0.088 sec  (  2.1%)
Density matrix formation    ....       0.009 sec  (  0.2%)
Population analysis         ....       0.008 sec  (  0.2%)
Initial guess               ....       0.126 sec  (  3.0%)
Orbital Transformation      ....       0.000 sec  (  0.0%)
Orbital Orthonormalization  ....       0.000 sec  (  0.0%)
DIIS solution               ....       0.016 sec  (  0.4%)
SOSCF solution              ....       0.019 sec  (  0.5%)
Grid generation             ....       0.244 sec  (  5.9%)

-------------------------   --------------------
FINAL SINGLE POINT ENERGY      -193.003001460357
-------------------------   --------------------


                            ***************************************
                            *     ORCA property calculations      *
                            ***************************************

                                    ---------------------
                                    Active property flags
                                    ---------------------
   (+) Dipole Moment
   (+) Polarizability


------------------------------------------------------------------------------
                       ORCA ELECTRIC PROPERTIES CALCULATION
------------------------------------------------------------------------------

Dipole Moment Calculation                       ... on
Quadrupole Moment Calculation                   ... off
Polarizability Calculation                      ... Analytic (CP-SCF)
GBWName                                         ... acetoneCHELPG.gbw
Electron density file                           ... acetoneCHELPG.scfp
The origin for moment calculation is the CENTER OF MASS  = (-1.807189, -3.558568 -0.277312)

-------------
DIPOLE MOMENT
-------------
                                X             Y             Z
Electronic contribution:      2.94116       2.47791       0.54535
Nuclear contribution   :     -3.83286      -3.22679      -0.71067
                        -----------------------------------------
Total Dipole Moment    :     -0.89169      -0.74888      -0.16532
                        -----------------------------------------
Magnitude (a.u.)       :      1.17612
Magnitude (Debye)      :      2.98947



--------------------
Rotational spectrum 
--------------------
 
Rotational constants in cm-1:     0.341602     0.286936     0.165457 
Rotational constants in MHz : 10240.983520  8602.115057  4960.285896 

 Dipole components along the rotational axes: 
x,y,z [a.u.] :    -0.000522    -1.176124    -0.000165 
x,y,z [Debye]:    -0.001328    -2.989469    -0.000419 

 
Transforming and storing MO dipole integrals   ... done

                ... starting polarizability calculation

Opening the Dipole integral file               ... (acetoneCHELPG.dmo.tmp) done
Reading Dipole-MO integrals                    ... done
Solving CP-SCF equations                       ... 

           ************************************************************
           *        Program running with 26 parallel MPI-processes    *
           *              working on a common directory               *
           ************************************************************

------------------------------------------------------------------------------
                           ORCA CP-SCF CALCULATION
------------------------------------------------------------------------------

Input orbitals are from        ... acetoneCHELPG.gbw
Input Perturbation             ... acetoneCHELPG.cpv.tmp
Wavefunction output            ... acetoneCHELPG.cpu.tmp
Perturbation mode              ... Real perturbation (singlet)
Solver                         ... POPLE
Max. number of iterations      ... 64
Convergence tolerance          ... 1.000e-06
Integral handling              ... Direct
Number of perturbations        ... 3
Number of operators            ... 1
Orbital ranges used for CP-SCF:
 Operator 0:  Orbitals   0... 15  to  16...159
DFT calculation                         ... on
Exchange functional (SCF)               ... PBE
Exchange functional (CP-SCF)            ... PBE
   PBE kappa parameter  XKappa (SCF)    ...  0.804000
   PBE kappa parameter  XKappa (CP-SCF) ...  0.804000
   PBE mue parameter   XMuePBE (SCF)    ...  0.219520
   PBE mue parameter   XMuePBE (CP-SCF) ...  0.219520
Correlation functional (SCF)            ... PBE
Correlation functional (CP-SCF)         ... PBE
   PBE beta parameter CBetaPBE (SCF)    ...  0.066725
   PBE beta parameter CBetaPBE (CP-SCF) ...  0.066725
 LDA part of GGA corr.  LDAOpt (SCF)    ... PW91-LDA
 LDA part of GGA corr.  LDAOpt (CP-SCF) ... PW91-LDA
Hybrid DFT                              ... on
   Exchange mixing (SCF)                ...  0.250
   Exchange mixing (CP-SCF)             ...  0.250
   GGA exch. scaling(SCF)               ...  0.750
   GGA exch. scaling (CP-SCF)           ...  0.750
   GGA corr. scaling (SCF)              ...  1.000
   GGA corr. scaling (CP-SCF)           ...  1.000
Variables per vector in CP-SCF ... 2304
Number of vectors sought       ... 3
Recalculating density on grid  ... done
Calculating the xc-kernel      ... done
     CP-SCF ITERATION   0: 
     CP-SCF ITERATION   1:      0.663472861732
     CP-SCF ITERATION   2:      0.028509856744
     CP-SCF ITERATION   3:      0.001377445033
     CP-SCF ITERATION   4:      0.000067916583
     CP-SCF ITERATION   5:      0.000002697153
     CP-SCF ITERATION   6:      0.000000196917
done
Reading CP-SCF coefficients                    ... done
Doing the polarizability tensor                ... done
Cleaning up                                    ... done

-------------------------
THE POLARIZABILITY TENSOR
-------------------------

The raw cartesian tensor (atomic units):
   38.83211      5.69300      1.80286  
    5.69300     37.52189     -1.63804  
    1.80286     -1.63804     42.09750  
diagonalized tensor: 
   31.87224     42.62323     43.95603  

    0.65117      0.00938      0.75887  
   -0.72304     -0.29621      0.62408  
   -0.23064      0.95508      0.18610  

Isotropic polarizability :  39.48383

------------------------------------------------------------------------------
                      ORCA CHELPG CHARGES GENERATION
------------------------------------------------------------------------------

GBW file                           ... acetoneCHELPG.gbw

Reading the GBW file               ... done

Grid spacing                       ...     0.300000
Point Cut-Off                      ...     2.800000
Van-der-Waals Radii                ...        COSMO
Total charge                       ...            0


Number of points X direction       ...           27
Number of points Y direction       ...           27
Number of points Z direction       ...           32
Maximum number of possible points  ...        23328
Final number of points             ...         8112


CHELPG Charges            
--------------------------------
  0   O   :      -0.545376
  1   C   :       0.834112
  2   C   :      -0.666294
  3   C   :      -0.666756
  4   H   :       0.179414
  5   H   :       0.169066
  6   H   :       0.173295
  7   H   :       0.179472
  8   H   :       0.174008
  9   H   :       0.169060
--------------------------------
Total charge:    -0.000000
--------------------------------

CHELPG charges calculated...

Timings for individual parts in CHELPG calculation:
Grid generation                 ...        0.002 sec (=   0.000 min)
Potential calculation           ...        2.272 sec (=   0.038 min)
Fit to the potential            ...        0.009 sec (=   0.000 min)
------------------------------------------------------------------------------

------------------------------------------------------------------------------
                      ORCA CHELPG CHARGES GENERATION
------------------------------------------------------------------------------

GBW file                           ... acetoneCHELPG.gbw

Density file                       ... acetoneCHELPG.scfp

Reading the GBW file               ... done

Reading the density               ... Done!
Grid spacing                       ...     0.300000
Point Cut-Off                      ...     2.800000
Van-der-Waals Radii                ...        COSMO
Total charge                       ...            0


Number of points X direction       ...           27
Number of points Y direction       ...           27
Number of points Z direction       ...           32
Maximum number of possible points  ...        23328
Final number of points             ...         8112


CHELPG Charges            
--------------------------------
  0   O   :      -0.545376
  1   C   :       0.834112
  2   C   :      -0.666294
  3   C   :      -0.666756
  4   H   :       0.179414
  5   H   :       0.169066
  6   H   :       0.173295
  7   H   :       0.179472
  8   H   :       0.174008
  9   H   :       0.169060
--------------------------------
Total charge:     0.000000
--------------------------------

CHELPG charges calculated...

Timings for individual parts in CHELPG calculation:
Grid generation                 ...        0.001 sec (=   0.000 min)
Potential calculation           ...        2.272 sec (=   0.038 min)
Fit to the potential            ...        0.002 sec (=   0.000 min)
------------------------------------------------------------------------------


Timings for individual modules:

Sum of individual times         ...       11.665 sec (=   0.194 min)
GTO integral calculation        ...        0.695 sec (=   0.012 min)   6.0 %
SCF iterations                  ...        4.487 sec (=   0.075 min)  38.5 %
Solution of CP-SCF eqns.        ...        4.177 sec (=   0.070 min)  35.8 %
CHELPG charge generation        ...        2.306 sec (=   0.038 min)  19.8 %
                             ****ORCA TERMINATED NORMALLY****
TOTAL RUN TIME: 0 days 0 hours 0 minutes 14 seconds 455 msec
