
                                 *****************
                                 * O   R   C   A *
                                 *****************

           --- An Ab Initio, DFT and Semiempirical electronic structure package ---

                  #######################################################
                  #                        -***-                        #
                  #          Department of theory and spectroscopy      #
                  #               Directorship: Frank Neese             #
                  #        Max Planck Institute fuer Kohlenforschung    #
                  #                Kaiser Wilhelm Platz 1               #
                  #                 D-45470 Muelheim/Ruhr               #
                  #                      Germany                        #
                  #                                                     #
                  #                  All rights reserved                #
                  #                        -***-                        #
                  #######################################################


                         Program Version 4.2.1 -  RELEASE  -


 With contributions from (in alphabetic order):
   Daniel Aravena         : Magnetic Suceptibility
   Michael Atanasov       : Ab Initio Ligand Field Theory (pilot matlab implementation)
   Alexander A. Auer      : GIAO ZORA, VPT2
   Ute Becker             : Parallelization
   Giovanni Bistoni       : ED, misc. LED, open-shell LED, HFLD
   Martin Brehm           : Molecular dynamics
   Dmytro Bykov           : SCF Hessian
   Vijay G. Chilkuri      : MRCI spin determinant printing, contributions to CSF-ICE
   Dipayan Datta          : RHF DLPNO-CCSD density
   Achintya Kumar Dutta   : EOM-CC, STEOM-CC
   Dmitry Ganyushin       : Spin-Orbit,Spin-Spin,Magnetic field MRCI
   Miquel Garcia          : C-PCM Hessian, Gaussian charge scheme
   Yang Guo               : DLPNO-NEVPT2, CIM, IAO-localization
   Andreas Hansen         : Spin unrestricted coupled pair/coupled cluster methods
   Benjamin Helmich-Paris : CASSCF linear response (MC-RPA)
   Lee Huntington         : MR-EOM, pCC
   Robert Izsak           : Overlap fitted RIJCOSX, COSX-SCS-MP3, EOM
   Christian Kollmar      : KDIIS, OOCD, Brueckner-CCSD(T), CCSD density
   Simone Kossmann        : Meta GGA functionals, TD-DFT gradient, OOMP2, MP2 Hessian
   Martin Krupicka        : AUTO-CI
   Lucas Lang             : DCDCAS
   Dagmar Lenk            : GEPOL surface, SMD
   Dimitrios Liakos       : Extrapolation schemes; Compound Job, initial MDCI parallelization
   Dimitrios Manganas     : Further ROCIS development; embedding schemes
   Dimitrios Pantazis     : SARC Basis sets
   Taras Petrenko         : DFT Hessian,TD-DFT gradient, ASA, ECA, R-Raman, ABS, FL, XAS/XES, NRVS
   Peter Pinski           : DLPNO-MP2, DLPNO-MP2 Gradient
   Christoph Reimann      : Effective Core Potentials
   Marius Retegan         : Local ZFS, SOC
   Christoph Riplinger    : Optimizer, TS searches, QM/MM, DLPNO-CCSD(T), (RO)-DLPNO pert. Triples
   Tobias Risthaus        : Range-separated hybrids, TD-DFT gradient, RPA, STAB
   Michael Roemelt        : Original ROCIS implementation
   Masaaki Saitow         : Open-shell DLPNO-CCSD energy and density
   Barbara Sandhoefer     : DKH picture change effects
   Avijit Sen             : IP-ROCIS
   Kantharuban Sivalingam : CASSCF convergence, NEVPT2, FIC-MRCI
   Bernardo de Souza      : ESD, SOC TD-DFT
   Georgi Stoychev        : AutoAux, RI-MP2 NMR
   Willem Van den Heuvel  : Paramagnetic NMR
   Boris Wezisla          : Elementary symmetry handling
   Frank Wennmohs         : Technical directorship


 We gratefully acknowledge several colleagues who have allowed us to
 interface, adapt or use parts of their codes:
   Stefan Grimme, W. Hujo, H. Kruse,             : VdW corrections, initial TS optimization,
                  C. Bannwarth                     DFT functionals, gCP, sTDA/sTD-DF
   Ed Valeev, F. Pavosevic, A. Kumar             : LibInt (2-el integral package), F12 methods
   Garnet Chan, S. Sharma, J. Yang, R. Olivares  : DMRG
   Ulf Ekstrom                                   : XCFun DFT Library
   Mihaly Kallay                                 : mrcc  (arbitrary order and MRCC methods)
   Andreas Klamt, Michael Diedenhofen            : otool_cosmo (COSMO solvation model)
   Jiri Pittner, Ondrej Demel                    : Mk-CCSD
   Frank Weinhold                                : gennbo (NPA and NBO analysis)
   Christopher J. Cramer and Donald G. Truhlar   : smd solvation model
   Lars Goerigk                                  : TD-DFT with DH, B97 family of functionals
   V. Asgeirsson, H. Jonsson                     : NEB implementation
   FAccTs GmbH                                   : IRC, NEB, NEB-TS, Multilevel, MM, QM/MM, CI optimization
   S Lehtola, MJT Oliveira, MAL Marques          : LibXC Library


 Your calculation uses the libint2 library for the computation of 2-el integrals
 For citations please refer to: http://libint.valeyev.net

 Your ORCA version has been built with support for libXC version: 4.2.3
 For citations please refer to: https://tddft.org/programs/libxc/

 This ORCA versions uses:
   CBLAS   interface :  Fast vector & matrix operations
   LAPACKE interface :  Fast linear algebra routines
   SCALAPACK package :  Parallel linear algebra routines


----- Orbital basis set information -----
Your calculation utilizes the basis: def2-SVP
   F. Weigend and R. Ahlrichs, Phys. Chem. Chem. Phys. 7, 3297 (2005).

================================================================================
                                        WARNINGS
                       Please study these warnings very carefully!
================================================================================


WARNING: Geometry Optimization
  ===> : Switching off AutoStart
         For restart on a previous wavefunction, please use MOREAD

INFO   : the flag for use of LIBINT has been found!

================================================================================
                                       INPUT FILE
================================================================================
NAME = acetoneOpt.inp
|  1> !PBE0 def2-SVP OPT
|  2> 
|  3> *xyz 0 1
|  4> O  0.006  -0.848   0.086
|  5> C -0.873  -1.710  -0.085  
|  6> C -1.406  -2.648   0.972 
|  7> C -1.572  -1.974  -1.412 
|  8> H -1.093  -2.515   1.991  
|  9> H -2.463  -2.735   1.032 
| 10> H -1.069  -3.613   0.608 
| 11> H -0.905  -1.801  -2.305 
| 12> H -2.474  -1.426  -1.590 
| 13> H -1.800  -3.000  -1.522 
| 14> *
| 15> 
| 16> %pal
| 17>  nprocs 26
| 18> end
| 19> 
| 20> 
| 21>                          ****END OF INPUT****
================================================================================

                       *****************************
                       * Geometry Optimization Run *
                       *****************************

Geometry optimization settings:
Update method            Update   .... BFGS
Choice of coordinates    CoordSys .... Z-matrix Internals
Initial Hessian          InHess   .... Almoef's Model

Convergence Tolerances:
Energy Change            TolE     ....  5.0000e-06 Eh
Max. Gradient            TolMAXG  ....  3.0000e-04 Eh/bohr
RMS Gradient             TolRMSG  ....  1.0000e-04 Eh/bohr
Max. Displacement        TolMAXD  ....  4.0000e-03 bohr
RMS Displacement         TolRMSD  ....  2.0000e-03 bohr
Strict Convergence                ....  False
------------------------------------------------------------------------------
                        ORCA OPTIMIZATION COORDINATE SETUP
------------------------------------------------------------------------------

The optimization will be done in new redundant internal coordinates
Making redundant internal coordinates   ...  (new redundants) done
Evaluating the initial hessian          ...  (Almloef) done
Evaluating the coordinates              ...  done
Calculating the B-matrix                .... done
Calculating the G-matrix                .... done
Diagonalizing the G-matrix              .... done
The first mode is                       ....   12
The number of degrees of freedom        ....   24

    -----------------------------------------------------------------
                    Redundant Internal Coordinates


    -----------------------------------------------------------------
         Definition                    Initial Value    Approx d2E/dq
    -----------------------------------------------------------------
      1. B(C   1,O   0)                  1.2430         0.960469   
      2. B(C   2,C   1)                  1.5104         0.401527   
      3. B(C   3,C   1)                  1.5229         0.383446   
      4. B(H   4,C   2)                  1.0743         0.381546   
      5. B(H   5,C   2)                  1.0623         0.398717   
      6. B(H   6,C   2)                  1.0850         0.366735   
      7. B(H   7,C   3)                  1.1279         0.313241   
      8. B(H   8,C   3)                  1.0703         0.387094   
      9. B(H   9,C   3)                  1.0568         0.406857   
     10. A(O   0,C   1,C   3)          124.3811         0.427926   
     11. A(C   2,C   1,C   3)          109.8874         0.369520   
     12. A(O   0,C   1,C   2)          125.7313         0.431479   
     13. A(H   4,C   2,H   5)          104.2694         0.298269   
     14. A(C   1,C   2,H   5)          116.2020         0.333773   
     15. A(H   4,C   2,H   6)          109.7451         0.294346   
     16. A(C   1,C   2,H   4)          118.9553         0.331346   
     17. A(H   5,C   2,H   6)          104.7830         0.296403   
     18. A(C   1,C   2,H   6)          102.0028         0.329184   
     19. A(H   7,C   3,H   9)          101.1912         0.290049   
     20. A(C   1,C   3,H   9)          110.9796         0.332344   
     21. A(H   7,C   3,H   8)          106.7473         0.287796   
     22. A(C   1,C   3,H   8)          116.2932         0.329617   
     23. A(H   8,C   3,H   9)          107.3348         0.299917   
     24. A(C   1,C   3,H   7)          113.0698         0.318360   
     25. D(H   6,C   2,C   1,O   0)   -113.9130         0.011961   
     26. D(H   5,C   2,C   1,C   3)    -47.3269         0.011961   
     27. D(H   4,C   2,C   1,O   0)      6.9083         0.011961   
     28. D(H   6,C   2,C   1,C   3)     65.9617         0.011961   
     29. D(H   5,C   2,C   1,O   0)    132.7984         0.011961   
     30. D(H   4,C   2,C   1,C   3)   -173.2170         0.011961   
     31. D(H   7,C   3,C   1,O   0)     32.9844         0.010960   
     32. D(H   9,C   3,C   1,C   2)    -33.9845         0.010960   
     33. D(H   9,C   3,C   1,O   0)    145.8923         0.010960   
     34. D(H   8,C   3,C   1,C   2)     89.0671         0.010960   
     35. D(H   8,C   3,C   1,O   0)    -91.0561         0.010960   
     36. D(H   7,C   3,C   1,C   2)   -146.8924         0.010960   
    -----------------------------------------------------------------

Number of atoms                         .... 10
Number of degrees of freedom            .... 36

         *************************************************************
         *                GEOMETRY OPTIMIZATION CYCLE   1            *
         *************************************************************
---------------------------------
CARTESIAN COORDINATES (ANGSTROEM)
---------------------------------
  O      0.006000   -0.848000    0.086000
  C     -0.873000   -1.710000   -0.085000
  C     -1.406000   -2.648000    0.972000
  C     -1.572000   -1.974000   -1.412000
  H     -1.093000   -2.515000    1.991000
  H     -2.463000   -2.735000    1.032000
  H     -1.069000   -3.613000    0.608000
  H     -0.905000   -1.801000   -2.305000
  H     -2.474000   -1.426000   -1.590000
  H     -1.800000   -3.000000   -1.522000

----------------------------
CARTESIAN COORDINATES (A.U.)
----------------------------
  NO LB      ZA    FRAG     MASS         X           Y           Z
   0 O     8.0000    0    15.999    0.011338   -1.602488    0.162516
   1 C     6.0000    0    12.011   -1.649731   -3.231432   -0.160627
   2 C     6.0000    0    12.011   -2.656955   -5.003995    1.836814
   3 C     6.0000    0    12.011   -2.970649   -3.730319   -2.668293
   4 H     1.0000    0     1.008   -2.065471   -4.752661    3.762445
   5 H     1.0000    0     1.008   -4.654395   -5.168401    1.950197
   6 H     1.0000    0     1.008   -2.020117   -6.827581    1.148953
   7 H     1.0000    0     1.008   -1.710202   -3.403397   -4.355819
   8 H     1.0000    0     1.008   -4.675182   -2.694749   -3.004665
   9 H     1.0000    0     1.008   -3.401507   -5.669178   -2.876163

--------------------------------
INTERNAL COORDINATES (ANGSTROEM)
--------------------------------
 O      0   0   0     0.000000000000     0.00000000     0.00000000
 C      1   0   0     1.242950521944     0.00000000     0.00000000
 C      2   1   0     1.510358235651   125.73134107     0.00000000
 C      2   1   3     1.522900522030   124.38113193   180.14279171
 H      3   2   1     1.074252763552   118.95532359     6.90830946
 H      3   2   1     1.062270210446   116.20203901   132.79842628
 H      3   2   1     1.085029953504   102.00281170   246.08697916
 H      4   2   1     1.127948137106   113.06982630    32.98438329
 H      4   2   1     1.070323315639   116.29324672   268.94387707
 H      4   2   1     1.056768659641   110.97960969   145.89227280

---------------------------
INTERNAL COORDINATES (A.U.)
---------------------------
 O      0   0   0     0.000000000000     0.00000000     0.00000000
 C      1   0   0     2.348836084488     0.00000000     0.00000000
 C      2   1   0     2.854163429494   125.73134107     0.00000000
 C      2   1   3     2.877864915843   124.38113193   180.14279171
 H      3   2   1     2.030043521722   118.95532359     6.90830946
 H      3   2   1     2.007399777965   116.20203901   132.79842628
 H      3   2   1     2.050409459223   102.00281170   246.08697916
 H      4   2   1     2.131513072396   113.06982630    32.98438329
 H      4   2   1     2.022617941308   116.29324672   268.94387707
 H      4   2   1     1.997003353633   110.97960969   145.89227280

---------------------
BASIS SET INFORMATION
---------------------
There are 3 groups of distinct atoms

 Group   1 Type O   : 7s4p1d contracted to 3s2p1d pattern {511/31/1}
 Group   2 Type C   : 7s4p1d contracted to 3s2p1d pattern {511/31/1}
 Group   3 Type H   : 4s1p contracted to 2s1p pattern {31/1}

Atom   0O    basis set group =>   1
Atom   1C    basis set group =>   2
Atom   2C    basis set group =>   2
Atom   3C    basis set group =>   2
Atom   4H    basis set group =>   3
Atom   5H    basis set group =>   3
Atom   6H    basis set group =>   3
Atom   7H    basis set group =>   3
Atom   8H    basis set group =>   3
Atom   9H    basis set group =>   3


           ************************************************************
           *        Program running with 26 parallel MPI-processes    *
           *              working on a common directory               *
           ************************************************************
------------------------------------------------------------------------------
                           ORCA GTO INTEGRAL CALCULATION
------------------------------------------------------------------------------

                         BASIS SET STATISTICS AND STARTUP INFO

 # of primitive gaussian shells          ...   78
 # of primitive gaussian functions       ...  138
 # of contracted shells                  ...   42
 # of contracted basis functions         ...   86
 Highest angular momentum                ...    2
 Maximum contraction depth               ...    5
 Integral package used                   ... LIBINT
 Integral threshhold            Thresh   ...  2.500e-11
 Primitive cut-off              TCut     ...  2.500e-12


------------------------------ INTEGRAL EVALUATION ----------------------------


 * One electron integrals 
 Pre-screening matrix                    ... done
 Shell pair data                         ... done (   0.000 sec)



           ************************************************************
           *        Program running with 26 parallel MPI-processes    *
           *              working on a common directory               *
           ************************************************************
-------------------------------------------------------------------------------
                                 ORCA SCF
-------------------------------------------------------------------------------

------------
SCF SETTINGS
------------
Hamiltonian:
 Density Functional     Method          .... DFT(GTOs)
 Exchange Functional    Exchange        .... PBE
   PBE kappa parameter   XKappa         ....  0.804000
   PBE mue parameter    XMuePBE         ....  0.219520
 Correlation Functional Correlation     .... PBE
   PBE beta parameter  CBetaPBE         ....  0.066725
 LDA part of GGA corr.  LDAOpt          .... PW91-LDA
 Gradients option       PostSCFGGA      .... off
 Hybrid DFT is turned on
   Fraction HF Exchange ScalHFX         ....  0.250000
   Scaling of DF-GGA-X  ScalDFX         ....  0.750000
   Scaling of DF-GGA-C  ScalDFC         ....  1.000000
   Scaling of DF-LDA-C  ScalLDAC        ....  1.000000
   Perturbative correction              ....  0.000000
   Density functional embedding theory  .... OFF
   NL short-range parameter             ....  6.900000


General Settings:
 Integral files         IntName         .... acetoneOpt
 Hartree-Fock type      HFTyp           .... RHF
 Total Charge           Charge          ....    0
 Multiplicity           Mult            ....    1
 Number of Electrons    NEL             ....   32
 Basis Dimension        Dim             ....   86
 Nuclear Repulsion      ENuc            ....    118.6725678350 Eh

Convergence Acceleration:
 DIIS                   CNVDIIS         .... on
   Start iteration      DIISMaxIt       ....    12
   Startup error        DIISStart       ....  0.200000
   # of expansion vecs  DIISMaxEq       ....     5
   Bias factor          DIISBfac        ....   1.050
   Max. coefficient     DIISMaxC        ....  10.000
 Newton-Raphson         CNVNR           .... off
 SOSCF                  CNVSOSCF        .... on
   Start iteration      SOSCFMaxIt      ....   150
   Startup grad/error   SOSCFStart      ....  0.003300
 Level Shifting         CNVShift        .... on
   Level shift para.    LevelShift      ....    0.2500
   Turn off err/grad.   ShiftErr        ....    0.0010
 Zerner damping         CNVZerner       .... off
 Static damping         CNVDamp         .... on
   Fraction old density DampFac         ....    0.7000
   Max. Damping (<1)    DampMax         ....    0.9800
   Min. Damping (>=0)   DampMin         ....    0.0000
   Turn off err/grad.   DampErr         ....    0.1000
 Fernandez-Rico         CNVRico         .... off

SCF Procedure:
 Maximum # iterations   MaxIter         ....   125
 SCF integral mode      SCFMode         .... Direct
   Integral package                     .... LIBINT
 Reset frequency        DirectResetFreq ....    20
 Integral Threshold     Thresh          ....  2.500e-11 Eh
 Primitive CutOff       TCut            ....  2.500e-12 Eh

Convergence Tolerance:
 Convergence Check Mode ConvCheckMode   .... Total+1el-Energy
 Convergence forced     ConvForced      .... 0
 Energy Change          TolE            ....  1.000e-08 Eh
 1-El. energy change                    ....  1.000e-05 Eh
 Orbital Gradient       TolG            ....  1.000e-05
 Orbital Rotation angle TolX            ....  1.000e-05
 DIIS Error             TolErr          ....  5.000e-07


Diagonalization of the overlap matrix:
Smallest eigenvalue                        ... 4.035e-03
Time for diagonalization                   ...    0.004 sec
Threshold for overlap eigenvalues          ... 1.000e-08
Number of eigenvalues below threshold      ... 0
Time for construction of square roots      ...    0.001 sec
Total time needed                          ...    0.005 sec

-------------------
DFT GRID GENERATION
-------------------

General Integration Accuracy     IntAcc      ...  4.340
Radial Grid Type                 RadialGrid  ... Gauss-Chebyshev
Angular Grid (max. acc.)         AngularGrid ... Lebedev-110
Angular grid pruning method      GridPruning ... 3 (G Style)
Weight generation scheme         WeightScheme... Becke
Basis function cutoff            BFCut       ...    1.0000e-11
Integration weight cutoff        WCut        ...    1.0000e-14
Grids for H and He will be reduced by one unit

# of grid points (after initial pruning)     ...  11448 (   0.0 sec)
# of grid points (after weights+screening)   ...  10901 (   0.0 sec)
nearest neighbour list constructed           ...    0.0 sec
Grid point re-assignment to atoms done       ...    0.0 sec
Grid point division into batches done        ...    0.0 sec
Reduced shell lists constructed in    0.0 sec

Total number of grid points                  ...    10901
Total number of batches                      ...      174
Average number of points per batch           ...       62
Average number of grid points per atom       ...     1090
Average number of shells per batch           ...    16.62 (39.58%)
Average number of basis functions per batch  ...    32.12 (37.35%)
Average number of large shells per batch     ...    12.75 (76.69%)
Average number of large basis fcns per batch ...    24.75 (77.04%)
Maximum spatial batch extension              ...  20.49, 15.56, 17.87 au
Average spatial batch extension              ...   0.51,  0.46,  0.48 au

Time for grid setup =    0.024 sec

------------------------------
INITIAL GUESS: MODEL POTENTIAL
------------------------------
Loading Hartree-Fock densities                     ... done
Calculating cut-offs                               ... done
Setting up the integral package                    ... done
Initializing the effective Hamiltonian             ... done
Starting the Coulomb interaction                   ... done (   0.0 sec)
Reading the grid                                   ... done
Mapping shells                                     ... done
Starting the XC term evaluation                    ... done (   0.0 sec)
  promolecular density results
     # of electrons  =     31.992835722
     EX              =    -25.224096428
     EC              =     -1.033070116
     EX+EC           =    -26.257166545
Transforming the Hamiltonian                       ... done (   0.0 sec)
Diagonalizing the Hamiltonian                      ... done (   0.0 sec)
Back transforming the eigenvectors                 ... done (   0.0 sec)
Now organizing SCF variables                       ... done
                      ------------------
                      INITIAL GUESS DONE (   0.1 sec)
                      ------------------
--------------
SCF ITERATIONS
--------------
ITER       Energy         Delta-E        Max-DP      RMS-DP      [F,P]     Damp
               ***  Starting incremental Fock matrix formation  ***
  0   -192.6155383276   0.000000000000 0.07533781  0.00417228  0.2248126 0.7000
  1   -192.6886269680  -0.073088640314 0.05053552  0.00274697  0.0882865 0.7000
                               ***Turning on DIIS***
  2   -192.7164569163  -0.027829948370 0.07341485  0.00395943  0.0412019 0.0000
  3   -192.7603281380  -0.043871221683 0.04793979  0.00214960  0.0478275 0.0000
  4   -192.7698141856  -0.009486047619 0.00887325  0.00052092  0.0159061 0.0000
                      *** Initiating the SOSCF procedure ***
                           *** Shutting down DIIS ***
                      *** Re-Reading the Fockian *** 
                      *** Removing any level shift *** 
ITER      Energy       Delta-E        Grad      Rot      Max-DP    RMS-DP
  5   -192.77060038  -0.0007861974  0.000485  0.000485  0.003255  0.000161
               *** Restarting incremental Fock matrix formation ***
  6   -192.77062335  -0.0000229658  0.000266  0.000542  0.002237  0.000104
  7   -192.77062438  -0.0000010269  0.000197  0.000122  0.000604  0.000020
  8   -192.77062561  -0.0000012391  0.000023  0.000025  0.000115  0.000006
  9   -192.77062561   0.0000000006  0.000036  0.000045  0.000044  0.000002
 10   -192.77062562  -0.0000000072  0.000011  0.000019  0.000067  0.000003
 11   -192.77062562  -0.0000000007  0.000003  0.000004  0.000018  0.000001
                  ***Gradient check signals convergence***
              ***Rediagonalizing the Fockian in SOSCF/NRSCF***

               *****************************************************
               *                     SUCCESS                       *
               *           SCF CONVERGED AFTER  12 CYCLES          *
               *****************************************************

Setting up the final grid:

General Integration Accuracy     IntAcc      ...  4.670
Radial Grid Type                 RadialGrid  ... Gauss-Chebyshev
Angular Grid (max. acc.)         AngularGrid ... Lebedev-302
Angular grid pruning method      GridPruning ... 3 (G Style)
Weight generation scheme         WeightScheme... Becke
Basis function cutoff            BFCut       ...    1.0000e-11
Integration weight cutoff        WCut        ...    1.0000e-14
Grids for H and He will be reduced by one unit

# of grid points (after initial pruning)     ...  45212 (   0.0 sec)
# of grid points (after weights+screening)   ...  42613 (   0.0 sec)
nearest neighbour list constructed           ...    0.0 sec
Grid point re-assignment to atoms done       ...    0.0 sec
Grid point division into batches done        ...    0.2 sec
Reduced shell lists constructed in    0.2 sec

Total number of grid points                  ...    42613
Total number of batches                      ...      672
Average number of points per batch           ...       63
Average number of grid points per atom       ...     4261
Average number of shells per batch           ...    10.85 (25.84%)
Average number of basis functions per batch  ...    18.85 (21.92%)
Average number of large shells per batch     ...     7.26 (66.89%)
Average number of large basis fcns per batch ...    12.00 (63.65%)
Maximum spatial batch extension              ...  16.97, 15.43, 14.69 au
Average spatial batch extension              ...   0.33,  0.33,  0.31 au

Final grid set up in    0.2 sec
Final integration                            ... done (   0.0 sec)
Change in XC energy                          ...    -0.000293748
Integrated number of electrons               ...    31.999997895
Previous integrated no of electrons          ...    31.997676393

----------------
TOTAL SCF ENERGY
----------------

Total Energy       :         -192.77091937 Eh           -5245.56340 eV

Components:
Nuclear Repulsion  :          118.67256783 Eh            3229.24474 eV
Electronic Energy  :         -311.44348720 Eh           -8474.80814 eV
One Electron Energy:         -495.58430993 Eh          -13485.53466 eV
Two Electron Energy:          184.14082272 Eh            5010.72653 eV

Virial components:
Potential Energy   :         -383.74891773 Eh          -10442.33893 eV
Kinetic Energy     :          190.97799836 Eh            5196.77553 eV
Virial Ratio       :            2.00938810


DFT components:
N(Alpha)           :       15.999998947460 electrons
N(Beta)            :       15.999998947460 electrons
N(Total)           :       31.999997894920 electrons
E(X)               :      -19.322159778126 Eh       
E(C)               :       -1.048314415610 Eh       
E(XC)              :      -20.370474193736 Eh       
DFET-embed. en.    :        0.000000000000 Eh       

---------------
SCF CONVERGENCE
---------------

  Last Energy change         ...   -3.2043e-10  Tolerance :   1.0000e-08
  Last MAX-Density change    ...    5.3714e-06  Tolerance :   1.0000e-07
  Last RMS-Density change    ...    2.2887e-07  Tolerance :   5.0000e-09
  Last Orbital Gradient      ...    7.8832e-07  Tolerance :   1.0000e-05
  Last Orbital Rotation      ...    9.8384e-07  Tolerance :   1.0000e-05

             **** THE GBW FILE WAS UPDATED (acetoneOpt.gbw) ****
             **** DENSITY FILE WAS UPDATED (acetoneOpt.scfp) ****
             **** ENERGY FILE WAS UPDATED (acetoneOpt.en.tmp) ****
             **** THE GBW FILE WAS UPDATED (acetoneOpt.gbw) ****
             **** DENSITY FILE WAS UPDATED (acetoneOpt.scfp) ****
----------------
ORBITAL ENERGIES
----------------

  NO   OCC          E(Eh)            E(eV) 
   0   2.0000     -19.200108      -522.4615 
   1   2.0000     -10.330993      -281.1206 
   2   2.0000     -10.237099      -278.5656 
   3   2.0000     -10.236616      -278.5525 
   4   2.0000      -1.039628       -28.2897 
   5   2.0000      -0.798821       -21.7370 
   6   2.0000      -0.726584       -19.7714 
   7   2.0000      -0.558932       -15.2093 
   8   2.0000      -0.480950       -13.0873 
   9   2.0000      -0.472242       -12.8504 
  10   2.0000      -0.462642       -12.5891 
  11   2.0000      -0.421717       -11.4755 
  12   2.0000      -0.407391       -11.0857 
  13   2.0000      -0.383128       -10.4254 
  14   2.0000      -0.357781        -9.7357 
  15   2.0000      -0.263818        -7.1789 
  16   0.0000      -0.017601        -0.4789 
  17   0.0000       0.063522         1.7285 
  18   0.0000       0.111911         3.0453 
  19   0.0000       0.122195         3.3251 
  20   0.0000       0.141820         3.8591 
  21   0.0000       0.152671         4.1544 
  22   0.0000       0.161651         4.3988 
  23   0.0000       0.201477         5.4825 
  24   0.0000       0.274244         7.4626 
  25   0.0000       0.280004         7.6193 
  26   0.0000       0.433331        11.7915 
  27   0.0000       0.450285        12.2529 
  28   0.0000       0.480465        13.0741 
  29   0.0000       0.489871        13.3301 
  30   0.0000       0.539515        14.6810 
  31   0.0000       0.586042        15.9470 
  32   0.0000       0.600129        16.3303 
  33   0.0000       0.636388        17.3170 
  34   0.0000       0.643888        17.5211 
  35   0.0000       0.660413        17.9708 
  36   0.0000       0.681380        18.5413 
  37   0.0000       0.693017        18.8579 
  38   0.0000       0.699017        19.0212 
  39   0.0000       0.710555        19.3352 
  40   0.0000       0.714872        19.4527 
  41   0.0000       0.729294        19.8451 
  42   0.0000       0.836699        22.7677 
  43   0.0000       0.941142        25.6098 
  44   0.0000       0.978300        26.6209 
  45   0.0000       1.041903        28.3516 
  46   0.0000       1.149759        31.2865 
  47   0.0000       1.219864        33.1942 
  48   0.0000       1.276987        34.7486 
  49   0.0000       1.293054        35.1858 
  50   0.0000       1.384292        37.6685 
  51   0.0000       1.525785        41.5187 
  52   0.0000       1.559410        42.4337 
  53   0.0000       1.572065        42.7781 
  54   0.0000       1.595948        43.4280 
  55   0.0000       1.639416        44.6108 
  56   0.0000       1.684389        45.8345 
  57   0.0000       1.723582        46.9011 
  58   0.0000       1.797349        48.9083 
  59   0.0000       1.820151        49.5288 
  60   0.0000       1.846735        50.2522 
  61   0.0000       1.872174        50.9445 
  62   0.0000       1.887722        51.3675 
  63   0.0000       1.925561        52.3972 
  64   0.0000       2.002264        54.4844 
  65   0.0000       2.077444        56.5301 
  66   0.0000       2.085518        56.7498 
  67   0.0000       2.144175        58.3460 
  68   0.0000       2.273908        61.8762 
  69   0.0000       2.403579        65.4047 
  70   0.0000       2.446731        66.5789 
  71   0.0000       2.468293        67.1657 
  72   0.0000       2.490571        67.7719 
  73   0.0000       2.537879        69.0592 
  74   0.0000       2.623391        71.3861 
  75   0.0000       2.675902        72.8150 
  76   0.0000       2.705669        73.6250 
  77   0.0000       2.759688        75.0949 
  78   0.0000       2.818936        76.7071 
  79   0.0000       2.921470        79.4972 
  80   0.0000       2.973766        80.9203 
  81   0.0000       2.985149        81.2300 
  82   0.0000       3.118324        84.8539 
  83   0.0000       3.158048        85.9349 
  84   0.0000       3.366123        91.5969 
  85   0.0000       3.603819        98.0649 

                    ********************************
                    * MULLIKEN POPULATION ANALYSIS *
                    ********************************

-----------------------
MULLIKEN ATOMIC CHARGES
-----------------------
   0 O :   -0.246591
   1 C :    0.036952
   2 C :   -0.056536
   3 C :   -0.076038
   4 H :    0.055150
   5 H :    0.055909
   6 H :    0.059413
   7 H :    0.066529
   8 H :    0.073281
   9 H :    0.031932
Sum of atomic charges:   -0.0000000

--------------------------------
MULLIKEN REDUCED ORBITAL CHARGES
--------------------------------
  0 O s       :     3.789876  s :     3.789876
      pz      :     1.782654  p :     4.439794
      px      :     1.320219
      py      :     1.336921
      dz2     :     0.002033  d :     0.016920
      dxz     :     0.001977
      dyz     :     0.002033
      dx2y2   :     0.005388
      dxy     :     0.005489
  1 C s       :     3.175332  s :     3.175332
      pz      :     1.009154  p :     2.693783
      px      :     0.839538
      py      :     0.845091
      dz2     :     0.014433  d :     0.093934
      dxz     :     0.023405
      dyz     :     0.021664
      dx2y2   :     0.019823
      dxy     :     0.014608
  2 C s       :     2.996408  s :     2.996408
      pz      :     0.998833  p :     3.034878
      px      :     1.017699
      py      :     1.018346
      dz2     :     0.007588  d :     0.025249
      dxz     :     0.003220
      dyz     :     0.005607
      dx2y2   :     0.006395
      dxy     :     0.002440
  3 C s       :     3.003586  s :     3.003586
      pz      :     0.985900  p :     3.048382
      px      :     1.039611
      py      :     1.022871
      dz2     :     0.006769  d :     0.024070
      dxz     :     0.006189
      dyz     :     0.001923
      dx2y2   :     0.005296
      dxy     :     0.003893
  4 H s       :     0.920115  s :     0.920115
      pz      :     0.014031  p :     0.024735
      px      :     0.006159
      py      :     0.004544
  5 H s       :     0.917243  s :     0.917243
      pz      :     0.005407  p :     0.026848
      px      :     0.015701
      py      :     0.005740
  6 H s       :     0.913804  s :     0.913804
      pz      :     0.006035  p :     0.026783
      px      :     0.007154
      py      :     0.013594
  7 H s       :     0.910606  s :     0.910606
      pz      :     0.009590  p :     0.022866
      px      :     0.008018
      py      :     0.005257
  8 H s       :     0.900224  s :     0.900224
      pz      :     0.005075  p :     0.026496
      px      :     0.012576
      py      :     0.008844
  9 H s       :     0.941029  s :     0.941029
      pz      :     0.005457  p :     0.027039
      px      :     0.006445
      py      :     0.015137


                     *******************************
                     * LOEWDIN POPULATION ANALYSIS *
                     *******************************

----------------------
LOEWDIN ATOMIC CHARGES
----------------------
   0 O :   -0.175111
   1 C :    0.102484
   2 C :   -0.089760
   3 C :   -0.096752
   4 H :    0.036512
   5 H :    0.040303
   6 H :    0.052467
   7 H :    0.052291
   8 H :    0.048422
   9 H :    0.029145

-------------------------------
LOEWDIN REDUCED ORBITAL CHARGES
-------------------------------
  0 O s       :     3.576963  s :     3.576963
      pz      :     1.787086  p :     4.569592
      px      :     1.383219
      py      :     1.399287
      dz2     :     0.004008  d :     0.028556
      dxz     :     0.003339
      dyz     :     0.003244
      dx2y2   :     0.006368
      dxy     :     0.011597
  1 C s       :     2.891194  s :     2.891194
      pz      :     1.025051  p :     2.800832
      px      :     0.886835
      py      :     0.888946
      dz2     :     0.031745  d :     0.205490
      dxz     :     0.053880
      dyz     :     0.049243
      dx2y2   :     0.035111
      dxy     :     0.035511
  2 C s       :     2.835063  s :     2.835063
      pz      :     1.051182  p :     3.184828
      px      :     1.074387
      py      :     1.059259
      dz2     :     0.020629  d :     0.069869
      dxz     :     0.008686
      dyz     :     0.016179
      dx2y2   :     0.017383
      dxy     :     0.006992
  3 C s       :     2.843541  s :     2.843541
      pz      :     1.031470  p :     3.186849
      px      :     1.075798
      py      :     1.079581
      dz2     :     0.018894  d :     0.066363
      dxz     :     0.018021
      dyz     :     0.004973
      dx2y2   :     0.013741
      dxy     :     0.010734
  4 H s       :     0.892192  s :     0.892192
      pz      :     0.040777  p :     0.071296
      px      :     0.016395
      py      :     0.014123
  5 H s       :     0.884783  s :     0.884783
      pz      :     0.015214  p :     0.074914
      px      :     0.042916
      py      :     0.016784
  6 H s       :     0.876247  s :     0.876247
      pz      :     0.016375  p :     0.071286
      px      :     0.017397
      py      :     0.037513
  7 H s       :     0.885035  s :     0.885035
      pz      :     0.029375  p :     0.062674
      px      :     0.020655
      py      :     0.012644
  8 H s       :     0.877675  s :     0.877675
      pz      :     0.016151  p :     0.073903
      px      :     0.035299
      py      :     0.022453
  9 H s       :     0.894649  s :     0.894649
      pz      :     0.016360  p :     0.076206
      px      :     0.018193
      py      :     0.041654


                      *****************************
                      * MAYER POPULATION ANALYSIS *
                      *****************************

  NA   - Mulliken gross atomic population
  ZA   - Total nuclear charge
  QA   - Mulliken gross atomic charge
  VA   - Mayer's total valence
  BVA  - Mayer's bonded valence
  FA   - Mayer's free valence

  ATOM       NA         ZA         QA         VA         BVA        FA
  0 O      8.2466     8.0000    -0.2466     2.2125     2.2125    -0.0000
  1 C      5.9630     6.0000     0.0370     4.2078     4.2078     0.0000
  2 C      6.0565     6.0000    -0.0565     3.8609     3.8609     0.0000
  3 C      6.0760     6.0000    -0.0760     3.8464     3.8464     0.0000
  4 H      0.9448     1.0000     0.0552     1.0027     1.0027    -0.0000
  5 H      0.9441     1.0000     0.0559     0.9905     0.9905    -0.0000
  6 H      0.9406     1.0000     0.0594     0.9915     0.9915    -0.0000
  7 H      0.9335     1.0000     0.0665     0.9987     0.9987    -0.0000
  8 H      0.9267     1.0000     0.0733     0.9955     0.9955    -0.0000
  9 H      0.9681     1.0000     0.0319     0.9966     0.9966    -0.0000

  Mayer bond orders larger than 0.100000
B(  0-O ,  1-C ) :   2.1211 B(  1-C ,  2-C ) :   1.0064 B(  1-C ,  3-C ) :   0.9877 
B(  2-C ,  4-H ) :   0.9620 B(  2-C ,  5-H ) :   0.9594 B(  2-C ,  6-H ) :   0.9424 
B(  3-C ,  7-H ) :   0.9578 B(  3-C ,  8-H ) :   0.9525 B(  3-C ,  9-H ) :   0.9638 


-------
TIMINGS
-------

Total SCF time: 0 days 0 hours 0 min 2 sec 

Total time                  ....       2.353 sec
Sum of individual times     ....       2.133 sec  ( 90.7%)

Fock matrix formation       ....       1.758 sec  ( 74.7%)
  XC integration            ....       0.125 sec  (  7.1% of F)
    Basis function eval.    ....       0.020 sec  ( 15.9% of XC)
    Density eval.           ....       0.012 sec  (  9.8% of XC)
    XC-Functional eval.     ....       0.007 sec  (  5.3% of XC)
    XC-Potential eval.      ....       0.015 sec  ( 11.8% of XC)
Diagonalization             ....       0.010 sec  (  0.4%)
Density matrix formation    ....       0.005 sec  (  0.2%)
Population analysis         ....       0.004 sec  (  0.2%)
Initial guess               ....       0.104 sec  (  4.4%)
Orbital Transformation      ....       0.000 sec  (  0.0%)
Orbital Orthonormalization  ....       0.000 sec  (  0.0%)
DIIS solution               ....       0.003 sec  (  0.1%)
SOSCF solution              ....       0.009 sec  (  0.4%)
Grid generation             ....       0.240 sec  ( 10.2%)

-------------------------   --------------------
FINAL SINGLE POINT ENERGY      -192.770919369838
-------------------------   --------------------



           ************************************************************
           *        Program running with 26 parallel MPI-processes    *
           *              working on a common directory               *
           ************************************************************
------------------------------------------------------------------------------
                         ORCA SCF GRADIENT CALCULATION
------------------------------------------------------------------------------

Gradient of the Kohn-Sham DFT energy:
Kohn-Sham wavefunction type      ... RKS
Hartree-Fock exchange scaling    ...    0.250
Number of operators              ...    1
Number of atoms                  ...   10
Basis set dimensions             ...   86
Integral neglect threshold       ... 2.5e-11
Integral primitive cutoff        ... 2.5e-12

Nuclear repulsion gradient       ... done
One Electron Gradient            ... done
Pre-screening matrix             ... done
Starting the two electron gradient:
Two electron gradient done
Exchange-correlation gradient    ... done

------------------
CARTESIAN GRADIENT
------------------

   1   O   :    0.042929907    0.045658060    0.008477284
   2   C   :   -0.017675165   -0.042990297   -0.007070787
   3   C   :   -0.022955511   -0.002348301    0.005370595
   4   C   :   -0.047403363   -0.013082306    0.023117220
   5   H   :   -0.015853229   -0.008012241   -0.012288250
   6   H   :    0.030003431   -0.003385652    0.009089684
   7   H   :   -0.004106796    0.014907529   -0.002476876
   8   H   :    0.005835871   -0.007797570   -0.016476865
   9   H   :    0.016914110   -0.014963900   -0.004151665
  10   H   :    0.012310745    0.032014679   -0.003590340

Difference to translation invariance:
           :   -0.0000000000    0.0000000000    0.0000000000

Norm of the cartesian gradient     ...    0.1162455950
RMS gradient                       ...    0.0212234449
MAX gradient                       ...    0.0474033627

-------
TIMINGS
-------

Total SCF gradient time            ...        0.298 sec

One electron gradient       ....       0.002 sec  (  0.5%)
Prescreening matrices       ....       0.005 sec  (  1.6%)
Two electron gradient       ....       0.099 sec  ( 33.2%)
XC gradient                 ....       0.061 sec  ( 20.4%)
------------------------------------------------------------------------------
                         ORCA GEOMETRY RELAXATION STEP
------------------------------------------------------------------------------

Reading the OPT-File                    .... done
Getting information on internals        .... done
Copying old internal coords+grads       .... done
Making the new internal coordinates     .... (new redundants).... done
Validating the new internal coordinates .... (new redundants).... done
Calculating the B-matrix                .... done
Calculating the G,G- and P matrices     .... done
Transforming gradient to internals      .... done
Projecting the internal gradient        .... done
Number of atoms                         ....  10
Number of internal coordinates          ....  36
Current Energy                          ....  -192.770919370 Eh
Current gradient norm                   ....     0.116245595 Eh/bohr
Maximum allowed component of the step   ....  0.300
Current trust radius                    ....  0.300
Evaluating the initial hessian          ....  (Almloef) done
Projecting the Hessian                  .... done
Forming the augmented Hessian           .... done
Diagonalizing the augmented Hessian     .... done
Last element of RFO vector              ....  0.975267025
Lowest eigenvalues of augmented Hessian:
 -0.018639029  0.010979061  0.011543526  0.011981305  0.111446601
Length of the computed step             ....  0.226635293
The final length of the internal step   ....  0.226635293
Converting the step to cartesian space:
 Initial RMS(Int)=    0.0377725489
Transforming coordinates:
 Iter   0:  RMS(Cart)=    0.0606588863 RMS(Int)=    0.0378360969
 Iter   1:  RMS(Cart)=    0.0024447388 RMS(Int)=    0.0017259471
 Iter   2:  RMS(Cart)=    0.0001104770 RMS(Int)=    0.0000948442
 Iter   3:  RMS(Cart)=    0.0000084125 RMS(Int)=    0.0000065565
 Iter   4:  RMS(Cart)=    0.0000004891 RMS(Int)=    0.0000004401
 Iter   5:  RMS(Cart)=    0.0000000321 RMS(Int)=    0.0000000250
done
Storing new coordinates                 .... done

                                .--------------------.
          ----------------------|Geometry convergence|-------------------------
          Item                value                   Tolerance       Converged
          ---------------------------------------------------------------------
          RMS gradient        0.0160578728            0.0001000000      NO
          MAX gradient        0.0631902433            0.0003000000      NO
          RMS step            0.0377725489            0.0020000000      NO
          MAX step            0.0784166889            0.0040000000      NO
          ........................................................
          Max(Bonds)      0.0415      Max(Angles)    3.44
          Max(Dihed)        3.71      Max(Improp)    0.00
          ---------------------------------------------------------------------

The optimization has not yet converged - more geometry cycles are needed


    ---------------------------------------------------------------------------
                         Redundant Internal Coordinates
                            (Angstroem and degrees)

        Definition                    Value    dE/dq     Step     New-Value
    ----------------------------------------------------------------------------
     1. B(C   1,O   0)                1.2430  0.063190 -0.0342    1.2088   
     2. B(C   2,C   1)                1.5104  0.003622 -0.0046    1.5058   
     3. B(C   3,C   1)                1.5229  0.007289 -0.0096    1.5133   
     4. B(H   4,C   2)                1.0743 -0.017267  0.0228    1.0971   
     5. B(H   5,C   2)                1.0623 -0.029065  0.0369    1.0991   
     6. B(H   6,C   2)                1.0850 -0.013702  0.0188    1.1038   
     7. B(H   7,C   3)                1.1279  0.015299 -0.0244    1.1036   
     8. B(H   8,C   3)                1.0703 -0.021223  0.0277    1.0980   
     9. B(H   9,C   3)                1.0568 -0.033366  0.0415    1.0983   
    10. A(O   0,C   1,C   3)          124.38  0.010495   -1.49    122.89   
    11. A(C   2,C   1,C   3)          109.89 -0.022923    3.22    113.10   
    12. A(O   0,C   1,C   2)          125.73  0.012429   -1.73    124.00   
    13. A(H   4,C   2,H   5)          104.27 -0.015867    2.40    106.67   
    14. A(C   1,C   2,H   5)          116.20  0.012691   -2.17    114.03   
    15. A(H   4,C   2,H   6)          109.75  0.002105   -0.43    109.32   
    16. A(C   1,C   2,H   4)          118.96  0.014422   -2.66    116.30   
    17. A(H   5,C   2,H   6)          104.78 -0.001216    0.77    105.55   
    18. A(C   1,C   2,H   6)          102.00 -0.013399    2.44    104.44   
    19. A(H   7,C   3,H   9)          101.19 -0.011436    3.44    104.63   
    20. A(C   1,C   3,H   9)          110.98 -0.000068    0.40    111.38   
    21. A(H   7,C   3,H   8)          106.75 -0.006285    0.28    107.02   
    22. A(C   1,C   3,H   8)          116.29  0.011489   -2.55    113.74   
    23. A(H   8,C   3,H   9)          107.33 -0.004211    0.40    107.74   
    24. A(C   1,C   3,H   7)          113.07  0.006838   -1.10    111.97   
    25. D(H   6,C   2,C   1,O   0)   -113.91 -0.002393    1.98   -111.93   
    26. D(H   5,C   2,C   1,C   3)    -47.33  0.002740   -1.21    -48.54   
    27. D(H   4,C   2,C   1,O   0)      6.91 -0.001699    1.78      8.69   
    28. D(H   6,C   2,C   1,C   3)     65.96 -0.001497    0.27     66.24   
    29. D(H   5,C   2,C   1,O   0)    132.80  0.001844    0.49    133.29   
    30. D(H   4,C   2,C   1,C   3)   -173.22 -0.000803    0.07   -173.15   
    31. D(H   7,C   3,C   1,O   0)     32.98  0.006494   -3.71     29.28   
    32. D(H   9,C   3,C   1,C   2)    -33.98 -0.004533    1.83    -32.16   
    33. D(H   9,C   3,C   1,O   0)    145.89 -0.003648    0.15    146.04   
    34. D(H   8,C   3,C   1,C   2)     89.07 -0.001370    0.72     89.79   
    35. D(H   8,C   3,C   1,O   0)    -91.06 -0.000485   -0.96    -92.02   
    36. D(H   7,C   3,C   1,C   2)   -146.89  0.005609   -2.03   -148.92   
    ----------------------------------------------------------------------------

         *************************************************************
         *                GEOMETRY OPTIMIZATION CYCLE   2            *
         *************************************************************
---------------------------------
CARTESIAN COORDINATES (ANGSTROEM)
---------------------------------
  O     -0.040145   -0.899552    0.071756
  C     -0.900434   -1.731821   -0.096836
  C     -1.397443   -2.659171    0.980397
  C     -1.558120   -1.973543   -1.438148
  H     -1.042625   -2.455356    1.998317
  H     -2.492683   -2.731345    1.037938
  H     -1.050633   -3.658723    0.665612
  H     -0.880748   -1.739781   -2.277407
  H     -2.473654   -1.387433   -1.592694
  H     -1.812516   -3.033275   -1.573934

----------------------------
CARTESIAN COORDINATES (A.U.)
----------------------------
  NO LB      ZA    FRAG     MASS         X           Y           Z
   0 O     8.0000    0    15.999   -0.075862   -1.699907    0.135599
   1 C     6.0000    0    12.011   -1.701574   -3.272668   -0.182993
   2 C     6.0000    0    12.011   -2.640784   -5.025104    1.852681
   3 C     6.0000    0    12.011   -2.944420   -3.729456   -2.717706
   4 H     1.0000    0     1.008   -1.970276   -4.639950    3.776271
   5 H     1.0000    0     1.008   -4.710488   -5.161494    1.961419
   6 H     1.0000    0     1.008   -1.985408   -6.913985    1.257824
   7 H     1.0000    0     1.008   -1.664372   -3.287709   -4.303676
   8 H     1.0000    0     1.008   -4.674528   -2.621869   -3.009756
   9 H     1.0000    0     1.008   -3.425159   -5.732058   -2.974304

--------------------------------
INTERNAL COORDINATES (ANGSTROEM)
--------------------------------
 O      0   0   0     0.000000000000     0.00000000     0.00000000
 C      1   0   0     1.208798188892     0.00000000     0.00000000
 C      2   1   0     1.505796838419   123.99686873     0.00000000
 C      2   1   3     1.513307197141   122.88104943   182.00358956
 H      3   2   1     1.097085836286   116.27034168     8.65485711
 H      3   2   1     1.099122770296   114.00335429   133.32187484
 H      3   2   1     1.103844368569   104.47498373   248.06529512
 H      4   2   1     1.103554837109   111.92991705    29.29925771
 H      4   2   1     1.098003576626   113.69506964   267.96159459
 H      4   2   1     1.098264984369   111.36944036   146.03507370

---------------------------
INTERNAL COORDINATES (A.U.)
---------------------------
 O      0   0   0     0.000000000000     0.00000000     0.00000000
 C      1   0   0     2.284297528185     0.00000000     0.00000000
 C      2   1   0     2.845543637936   123.99686873     0.00000000
 C      2   1   3     2.859736159088   122.88104943   182.00358956
 H      3   2   1     2.073191775985   116.27034168     8.65485711
 H      3   2   1     2.077041023417   114.00335429   133.32187484
 H      3   2   1     2.085963551067   104.47498373   248.06529512
 H      4   2   1     2.085416415899   111.92991705    29.29925771
 H      4   2   1     2.074926053890   113.69506964   267.96159459
 H      4   2   1     2.075420042932   111.36944036   146.03507370



           ************************************************************
           *        Program running with 26 parallel MPI-processes    *
           *              working on a common directory               *
           ************************************************************


           ************************************************************
           *        Program running with 26 parallel MPI-processes    *
           *              working on a common directory               *
           ************************************************************

Diagonalization of the overlap matrix:
Smallest eigenvalue                        ... 3.708e-03
Time for diagonalization                   ...    0.002 sec
Threshold for overlap eigenvalues          ... 1.000e-08
Number of eigenvalues below threshold      ... 0
Time for construction of square roots      ...    0.001 sec
Total time needed                          ...    0.003 sec

-------------------
DFT GRID GENERATION
-------------------

General Integration Accuracy     IntAcc      ...  4.340
Radial Grid Type                 RadialGrid  ... Gauss-Chebyshev
Angular Grid (max. acc.)         AngularGrid ... Lebedev-110
Angular grid pruning method      GridPruning ... 3 (G Style)
Weight generation scheme         WeightScheme... Becke
Basis function cutoff            BFCut       ...    1.0000e-11
Integration weight cutoff        WCut        ...    1.0000e-14
Grids for H and He will be reduced by one unit

# of grid points (after initial pruning)     ...  11448 (   0.0 sec)
# of grid points (after weights+screening)   ...  10899 (   0.0 sec)
nearest neighbour list constructed           ...    0.0 sec
Grid point re-assignment to atoms done       ...    0.0 sec
Grid point division into batches done        ...    0.0 sec
Reduced shell lists constructed in    0.0 sec

Total number of grid points                  ...    10899
Total number of batches                      ...      176
Average number of points per batch           ...       61
Average number of grid points per atom       ...     1090
Average number of shells per batch           ...    17.75 (42.26%)
Average number of basis functions per batch  ...    34.25 (39.83%)
Average number of large shells per batch     ...    13.62 (76.76%)
Average number of large basis fcns per batch ...    26.62 (77.74%)
Maximum spatial batch extension              ...  20.42, 15.48, 17.94 au
Average spatial batch extension              ...   0.50,  0.46,  0.45 au

Time for grid setup =    0.024 sec

--------------
SCF ITERATIONS
--------------
ITER       Energy         Delta-E        Max-DP      RMS-DP      [F,P]     Damp
               ***  Starting incremental Fock matrix formation  ***
  0   -192.7796003076   0.000000000000 0.00569250  0.00032248  0.0156462 0.7000
                      *** Initiating the SOSCF procedure ***
                      *** Re-Reading the Fockian *** 
                      *** Removing any level shift *** 
ITER      Energy       Delta-E        Grad      Rot      Max-DP    RMS-DP
  1   -192.78037479  -0.0007744861  0.001712  0.001712  0.014071  0.000909
               *** Restarting incremental Fock matrix formation ***
  2   -192.78226603  -0.0018912384  0.001675  0.002665  0.008164  0.000403
  3   -192.78229997  -0.0000339408  0.001390  0.001980  0.002974  0.000165
  4   -192.78235169  -0.0000517206  0.000578  0.001287  0.001828  0.000067
  5   -192.78234771   0.0000039855  0.000871  0.000782  0.001262  0.000041
  6   -192.78235392  -0.0000062109  0.000016  0.000019  0.000094  0.000004
  7   -192.78235393  -0.0000000064  0.000015  0.000011  0.000048  0.000002
                  ***Gradient check signals convergence***
              ***Rediagonalizing the Fockian in SOSCF/NRSCF***

               *****************************************************
               *                     SUCCESS                       *
               *           SCF CONVERGED AFTER   8 CYCLES          *
               *****************************************************

Setting up the final grid:

General Integration Accuracy     IntAcc      ...  4.670
Radial Grid Type                 RadialGrid  ... Gauss-Chebyshev
Angular Grid (max. acc.)         AngularGrid ... Lebedev-302
Angular grid pruning method      GridPruning ... 3 (G Style)
Weight generation scheme         WeightScheme... Becke
Basis function cutoff            BFCut       ...    1.0000e-11
Integration weight cutoff        WCut        ...    1.0000e-14
Grids for H and He will be reduced by one unit

# of grid points (after initial pruning)     ...  45212 (   0.0 sec)
# of grid points (after weights+screening)   ...  42612 (   0.0 sec)
nearest neighbour list constructed           ...    0.0 sec
Grid point re-assignment to atoms done       ...    0.0 sec
Grid point division into batches done        ...    0.2 sec
Reduced shell lists constructed in    0.2 sec

Total number of grid points                  ...    42612
Total number of batches                      ...      671
Average number of points per batch           ...       63
Average number of grid points per atom       ...     4261
Average number of shells per batch           ...    11.81 (28.13%)
Average number of basis functions per batch  ...    20.78 (24.16%)
Average number of large shells per batch     ...     7.81 (66.14%)
Average number of large basis fcns per batch ...    12.56 (60.43%)
Maximum spatial batch extension              ...  14.31, 17.88, 14.72 au
Average spatial batch extension              ...   0.33,  0.34,  0.31 au

Final grid set up in    0.2 sec
Final integration                            ... done (   0.0 sec)
Change in XC energy                          ...    -0.000251924
Integrated number of electrons               ...    31.999976280
Previous integrated no of electrons          ...    31.997179345
Total Energy       :         -192.78260586 Eh           -5245.88140 eV
  Last Energy change         ...   -7.0913e-09  Tolerance :   1.0000e-08
  Last MAX-Density change    ...    8.9642e-06  Tolerance :   1.0000e-07
             **** THE GBW FILE WAS UPDATED (acetoneOpt.gbw) ****
             **** DENSITY FILE WAS UPDATED (acetoneOpt.scfp) ****
             **** ENERGY FILE WAS UPDATED (acetoneOpt.en.tmp) ****
             **** THE GBW FILE WAS UPDATED (acetoneOpt.gbw) ****
             **** DENSITY FILE WAS UPDATED (acetoneOpt.scfp) ****
Total SCF time: 0 days 0 hours 0 min 1 sec 

-------------------------   --------------------
FINAL SINGLE POINT ENERGY      -192.782605856693
-------------------------   --------------------



           ************************************************************
           *        Program running with 26 parallel MPI-processes    *
           *              working on a common directory               *
           ************************************************************
------------------------------------------------------------------------------
                         ORCA SCF GRADIENT CALCULATION
------------------------------------------------------------------------------

Gradient of the Kohn-Sham DFT energy:
Kohn-Sham wavefunction type      ... RKS
Hartree-Fock exchange scaling    ...    0.250
Number of operators              ...    1
Number of atoms                  ...   10
Basis set dimensions             ...   86
Integral neglect threshold       ... 2.5e-11
Integral primitive cutoff        ... 2.5e-12

Nuclear repulsion gradient       ... done
One Electron Gradient            ... done
Pre-screening matrix             ... done
Starting the two electron gradient:
Two electron gradient done
Exchange-correlation gradient    ... done

------------------
CARTESIAN GRADIENT
------------------

   1   O   :    0.004612865    0.005042664    0.000458529
   2   C   :    0.003118279   -0.007648580   -0.001464628
   3   C   :   -0.000296648    0.007602211   -0.004647498
   4   C   :   -0.008971101    0.005993056    0.014800984
   5   H   :   -0.006518619   -0.004359692    0.002862713
   6   H   :    0.002314977   -0.002136770    0.005628445
   7   H   :    0.000541179    0.001954923   -0.004377067
   8   H   :   -0.000966002   -0.005666672   -0.005091420
   9   H   :    0.001659621   -0.002175239   -0.004901897
  10   H   :    0.004505449    0.001394099   -0.003268161

Difference to translation invariance:
           :    0.0000000000    0.0000000000   -0.0000000000

Norm of the cartesian gradient     ...    0.0281106952
RMS gradient                       ...    0.0051322873
MAX gradient                       ...    0.0148009844

-------
TIMINGS
-------

Total SCF gradient time            ...        0.296 sec

One electron gradient       ....       0.002 sec  (  0.6%)
Prescreening matrices       ....       0.005 sec  (  1.6%)
Two electron gradient       ....       0.096 sec  ( 32.5%)
XC gradient                 ....       0.067 sec  ( 22.8%)
------------------------------------------------------------------------------
                         ORCA GEOMETRY RELAXATION STEP
------------------------------------------------------------------------------

Reading the OPT-File                    .... done
Getting information on internals        .... done
Copying old internal coords+grads       .... done
Making the new internal coordinates     .... (new redundants).... done
Validating the new internal coordinates .... (new redundants).... done
Calculating the B-matrix                .... done
Calculating the G,G- and P matrices     .... done
Transforming gradient to internals      .... done
Projecting the internal gradient        .... done
Number of atoms                         ....  10
Number of internal coordinates          ....  36
Current Energy                          ....  -192.782605857 Eh
Current gradient norm                   ....     0.028110695 Eh/bohr
Maximum allowed component of the step   ....  0.300
Current trust radius                    ....  0.300
Updating the Hessian (BFGS)             .... done
Forming the augmented Hessian           .... done
Diagonalizing the augmented Hessian     .... done
Last element of RFO vector              ....  0.982988750
Lowest eigenvalues of augmented Hessian:
 -0.003922610  0.011005456  0.011719711  0.011983323  0.110173122
Length of the computed step             ....  0.186844229
The final length of the internal step   ....  0.186844229
Converting the step to cartesian space:
 Initial RMS(Int)=    0.0311407049
Transforming coordinates:
 Iter   0:  RMS(Cart)=    0.0595022873 RMS(Int)=    0.0311962465
 Iter   1:  RMS(Cart)=    0.0025174383 RMS(Int)=    0.0021033213
 Iter   2:  RMS(Cart)=    0.0001434711 RMS(Int)=    0.0001021021
 Iter   3:  RMS(Cart)=    0.0000136023 RMS(Int)=    0.0000117741
 Iter   4:  RMS(Cart)=    0.0000008722 RMS(Int)=    0.0000007228
 Iter   5:  RMS(Cart)=    0.0000000821 RMS(Int)=    0.0000000684
done
Storing new coordinates                 .... done

                                .--------------------.
          ----------------------|Geometry convergence|-------------------------
          Item                value                   Tolerance       Converged
          ---------------------------------------------------------------------
          Energy change      -0.0116864869            0.0000050000      NO
          RMS gradient        0.0045529322            0.0001000000      NO
          MAX gradient        0.0107715406            0.0003000000      NO
          RMS step            0.0311407049            0.0020000000      NO
          MAX step            0.0867393517            0.0040000000      NO
          ........................................................
          Max(Bonds)      0.0090      Max(Angles)    3.42
          Max(Dihed)        4.97      Max(Improp)    0.00
          ---------------------------------------------------------------------

The optimization has not yet converged - more geometry cycles are needed


    ---------------------------------------------------------------------------
                         Redundant Internal Coordinates
                            (Angstroem and degrees)

        Definition                    Value    dE/dq     Step     New-Value
    ----------------------------------------------------------------------------
     1. B(C   1,O   0)                1.2088  0.006819 -0.0090    1.1998   
     2. B(C   2,C   1)                1.5058 -0.000958  0.0012    1.5070   
     3. B(C   3,C   1)                1.5133  0.000346 -0.0017    1.5117   
     4. B(H   4,C   2)                1.0971 -0.000263  0.0029    1.1000   
     5. B(H   5,C   2)                1.0991 -0.001872  0.0072    1.1064   
     6. B(H   6,C   2)                1.1038 -0.000351  0.0027    1.1065   
     7. B(H   7,C   3)                1.1036  0.002079 -0.0071    1.0964   
     8. B(H   8,C   3)                1.0980 -0.001854  0.0063    1.1043   
     9. B(H   9,C   3)                1.0983 -0.001986  0.0079    1.1061   
    10. A(O   0,C   1,C   3)          122.88  0.004375   -1.03    121.85   
    11. A(C   2,C   1,C   3)          113.10 -0.010085    2.30    115.39   
    12. A(O   0,C   1,C   2)          124.00  0.005695   -1.28    122.72   
    13. A(H   4,C   2,H   5)          106.61 -0.009205    2.16    108.77   
    14. A(C   1,C   2,H   5)          114.00  0.006246   -1.72    112.28   
    15. A(H   4,C   2,H   6)          109.34  0.000634   -0.25    109.09   
    16. A(C   1,C   2,H   4)          116.27  0.010772   -2.99    113.28   
    17. A(H   5,C   2,H   6)          105.58 -0.000040    0.59    106.16   
    18. A(C   1,C   2,H   6)          104.47 -0.009190    2.57    107.05   
    19. A(H   7,C   3,H   9)          104.63 -0.007086    3.42    108.05   
    20. A(C   1,C   3,H   9)          111.37 -0.001244    0.62    111.99   
    21. A(H   7,C   3,H   8)          106.96 -0.004412    0.52    107.48   
    22. A(C   1,C   3,H   8)          113.70  0.007441   -2.55    111.14   
    23. A(H   8,C   3,H   9)          107.73 -0.001374   -0.06    107.67   
    24. A(C   1,C   3,H   7)          111.93  0.005217   -1.19    110.74   
    25. D(H   6,C   2,C   1,O   0)   -111.93 -0.001026    0.09   -111.85   
    26. D(H   5,C   2,C   1,C   3)    -48.51  0.001110    1.27    -47.23   
    27. D(H   4,C   2,C   1,O   0)      8.65 -0.000524   -0.01      8.65   
    28. D(H   6,C   2,C   1,C   3)     66.24 -0.001480    2.79     69.03   
    29. D(H   5,C   2,C   1,O   0)    133.32  0.001563   -1.43    131.89   
    30. D(H   4,C   2,C   1,C   3)   -173.17 -0.000978    2.70   -170.48   
    31. D(H   7,C   3,C   1,O   0)     29.30  0.003464   -2.31     26.99   
    32. D(H   9,C   3,C   1,C   2)    -32.16 -0.002470   -1.05    -33.21   
    33. D(H   9,C   3,C   1,O   0)    146.04 -0.002886    1.61    147.64   
    34. D(H   8,C   3,C   1,C   2)     89.77  0.000240   -2.58     87.19   
    35. D(H   8,C   3,C   1,O   0)    -92.04 -0.000175    0.08    -91.96   
    36. D(H   7,C   3,C   1,C   2)   -148.89  0.003879   -4.97   -153.86   
    ----------------------------------------------------------------------------

         *************************************************************
         *                GEOMETRY OPTIMIZATION CYCLE   3            *
         *************************************************************
---------------------------------
CARTESIAN COORDINATES (ANGSTROEM)
---------------------------------
  O     -0.062613   -0.933780    0.063842
  C     -0.901255   -1.773356   -0.113193
  C     -1.395537   -2.676091    0.987588
  C     -1.549947   -1.981227   -1.462668
  H     -1.025283   -2.389227    1.982891
  H     -2.500191   -2.726600    1.022578
  H     -1.046690   -3.699199    0.751124
  H     -0.875493   -1.667638   -2.268221
  H     -2.473184   -1.382414   -1.555139
  H     -1.818807   -3.040468   -1.633801

----------------------------
CARTESIAN COORDINATES (A.U.)
----------------------------
  NO LB      ZA    FRAG     MASS         X           Y           Z
   0 O     8.0000    0    15.999   -0.118321   -1.764588    0.120643
   1 C     6.0000    0    12.011   -1.703126   -3.351157   -0.213903
   2 C     6.0000    0    12.011   -2.637183   -5.057080    1.866270
   3 C     6.0000    0    12.011   -2.928975   -3.743976   -2.764043
   4 H     1.0000    0     1.008   -1.937504   -4.514984    3.747122
   5 H     1.0000    0     1.008   -4.724676   -5.152527    1.932392
   6 H     1.0000    0     1.008   -1.977957   -6.990473    1.419418
   7 H     1.0000    0     1.008   -1.654442   -3.151379   -4.286316
   8 H     1.0000    0     1.008   -4.673641   -2.612383   -2.938787
   9 H     1.0000    0     1.008   -3.437047   -5.745653   -3.087436

--------------------------------
INTERNAL COORDINATES (ANGSTROEM)
--------------------------------
 O      0   0   0     0.000000000000     0.00000000     0.00000000
 C      1   0   0     1.199812823768     0.00000000     0.00000000
 C      2   1   0     1.506971367579   122.72882013     0.00000000
 C      2   1   3     1.511653127370   121.86347574   179.07688955
 H      3   2   1     1.100004153643   113.22296767     8.56698047
 H      3   2   1     1.106361468896   112.20615243   131.96944673
 H      3   2   1     1.106507460353   107.12037597   248.16518416
 H      4   2   1     1.096421914703   110.64540115    27.04981657
 H      4   2   1     1.104307636878   111.03578441   267.99094645
 H      4   2   1     1.106148463576   111.96849169   147.63972132

---------------------------
INTERNAL COORDINATES (A.U.)
---------------------------
 O      0   0   0     0.000000000000     0.00000000     0.00000000
 C      1   0   0     2.267317648889     0.00000000     0.00000000
 C      2   1   0     2.847763176385   122.72882013     0.00000000
 C      2   1   3     2.856610420215   121.86347574   179.07688955
 H      3   2   1     2.078706596560   113.22296767     8.56698047
 H      3   2   1     2.090720181337   112.20615243   131.96944673
 H      3   2   1     2.090996065207   107.12037597   248.16518416
 H      4   2   1     2.071937146017   110.64540115    27.04981657
 H      4   2   1     2.086839001297   111.03578441   267.99094645
 H      4   2   1     2.090317659617   111.96849169   147.63972132



           ************************************************************
           *        Program running with 26 parallel MPI-processes    *
           *              working on a common directory               *
           ************************************************************


           ************************************************************
           *        Program running with 26 parallel MPI-processes    *
           *              working on a common directory               *
           ************************************************************

Diagonalization of the overlap matrix:
Smallest eigenvalue                        ... 3.517e-03
Time for diagonalization                   ...    0.002 sec
Threshold for overlap eigenvalues          ... 1.000e-08
Number of eigenvalues below threshold      ... 0
Time for construction of square roots      ...    0.002 sec
Total time needed                          ...    0.004 sec

-------------------
DFT GRID GENERATION
-------------------

General Integration Accuracy     IntAcc      ...  4.340
Radial Grid Type                 RadialGrid  ... Gauss-Chebyshev
Angular Grid (max. acc.)         AngularGrid ... Lebedev-110
Angular grid pruning method      GridPruning ... 3 (G Style)
Weight generation scheme         WeightScheme... Becke
Basis function cutoff            BFCut       ...    1.0000e-11
Integration weight cutoff        WCut        ...    1.0000e-14
Grids for H and He will be reduced by one unit

# of grid points (after initial pruning)     ...  11448 (   0.0 sec)
# of grid points (after weights+screening)   ...  10892 (   0.0 sec)
nearest neighbour list constructed           ...    0.0 sec
Grid point re-assignment to atoms done       ...    0.0 sec
Grid point division into batches done        ...    0.0 sec
Reduced shell lists constructed in    0.0 sec

Total number of grid points                  ...    10892
Total number of batches                      ...      177
Average number of points per batch           ...       61
Average number of grid points per atom       ...     1089
Average number of shells per batch           ...    18.25 (43.45%)
Average number of basis functions per batch  ...    35.50 (41.28%)
Average number of large shells per batch     ...    14.00 (76.71%)
Average number of large basis fcns per batch ...    27.25 (76.76%)
Maximum spatial batch extension              ...  20.42, 15.45, 18.00 au
Average spatial batch extension              ...   0.48,  0.45,  0.45 au

Time for grid setup =    0.023 sec

--------------
SCF ITERATIONS
--------------
ITER       Energy         Delta-E        Max-DP      RMS-DP      [F,P]     Damp
               ***  Starting incremental Fock matrix formation  ***
  0   -192.7829222817   0.000000000000 0.00503660  0.00022497  0.0203712 0.7000
                      *** Initiating the SOSCF procedure ***
                      *** Re-Reading the Fockian *** 
                      *** Removing any level shift *** 
ITER      Energy       Delta-E        Grad      Rot      Max-DP    RMS-DP
  1   -192.78345057  -0.0005282876  0.001352  0.001352  0.015325  0.000694
               *** Restarting incremental Fock matrix formation ***
  2   -192.78489624  -0.0014456689  0.000865  0.001886  0.003339  0.000202
  3   -192.78493856  -0.0000423189  0.000347  0.000699  0.001666  0.000069
  4   -192.78493935  -0.0000007927  0.000389  0.000392  0.000795  0.000030
  5   -192.78494122  -0.0000018727  0.000181  0.000367  0.000402  0.000023
  6   -192.78494107   0.0000001531  0.000196  0.000195  0.000226  0.000014
  7   -192.78494142  -0.0000003488  0.000005  0.000010  0.000025  0.000001
  8   -192.78494142  -0.0000000005  0.000004  0.000004  0.000013  0.000001
                  ***Gradient check signals convergence***
              ***Rediagonalizing the Fockian in SOSCF/NRSCF***

               *****************************************************
               *                     SUCCESS                       *
               *           SCF CONVERGED AFTER   9 CYCLES          *
               *****************************************************

Setting up the final grid:

General Integration Accuracy     IntAcc      ...  4.670
Radial Grid Type                 RadialGrid  ... Gauss-Chebyshev
Angular Grid (max. acc.)         AngularGrid ... Lebedev-302
Angular grid pruning method      GridPruning ... 3 (G Style)
Weight generation scheme         WeightScheme... Becke
Basis function cutoff            BFCut       ...    1.0000e-11
Integration weight cutoff        WCut        ...    1.0000e-14
Grids for H and He will be reduced by one unit

# of grid points (after initial pruning)     ...  45212 (   0.0 sec)
# of grid points (after weights+screening)   ...  42631 (   0.0 sec)
nearest neighbour list constructed           ...    0.0 sec
Grid point re-assignment to atoms done       ...    0.0 sec
Grid point division into batches done        ...    0.2 sec
Reduced shell lists constructed in    0.2 sec

Total number of grid points                  ...    42631
Total number of batches                      ...      671
Average number of points per batch           ...       63
Average number of grid points per atom       ...     4263
Average number of shells per batch           ...    12.22 (29.10%)
Average number of basis functions per batch  ...    21.85 (25.41%)
Average number of large shells per batch     ...     8.41 (68.79%)
Average number of large basis fcns per batch ...    14.19 (64.92%)
Maximum spatial batch extension              ...  15.58, 15.27, 14.73 au
Average spatial batch extension              ...   0.31,  0.31,  0.31 au

Final grid set up in    0.2 sec
Final integration                            ... done (   0.0 sec)
Change in XC energy                          ...    -0.000215517
Integrated number of electrons               ...    31.999948675
Previous integrated no of electrons          ...    31.997141516
Total Energy       :         -192.78515694 Eh           -5245.95082 eV
  Last Energy change         ...   -5.4982e-10  Tolerance :   1.0000e-08
  Last MAX-Density change    ...    1.9342e-06  Tolerance :   1.0000e-07
             **** THE GBW FILE WAS UPDATED (acetoneOpt.gbw) ****
             **** DENSITY FILE WAS UPDATED (acetoneOpt.scfp) ****
             **** ENERGY FILE WAS UPDATED (acetoneOpt.en.tmp) ****
             **** THE GBW FILE WAS UPDATED (acetoneOpt.gbw) ****
             **** DENSITY FILE WAS UPDATED (acetoneOpt.scfp) ****
Total SCF time: 0 days 0 hours 0 min 1 sec 

-------------------------   --------------------
FINAL SINGLE POINT ENERGY      -192.785156935872
-------------------------   --------------------



           ************************************************************
           *        Program running with 26 parallel MPI-processes    *
           *              working on a common directory               *
           ************************************************************
------------------------------------------------------------------------------
                         ORCA SCF GRADIENT CALCULATION
------------------------------------------------------------------------------

Gradient of the Kohn-Sham DFT energy:
Kohn-Sham wavefunction type      ... RKS
Hartree-Fock exchange scaling    ...    0.250
Number of operators              ...    1
Number of atoms                  ...   10
Basis set dimensions             ...   86
Integral neglect threshold       ... 2.5e-11
Integral primitive cutoff        ... 2.5e-12

Nuclear repulsion gradient       ... done
One Electron Gradient            ... done
Pre-screening matrix             ... done
Starting the two electron gradient:
Two electron gradient done
Exchange-correlation gradient    ... done

------------------
CARTESIAN GRADIENT
------------------

   1   O   :   -0.009200125   -0.007084676   -0.001696045
   2   C   :    0.011834746    0.001869650   -0.000281074
   3   C   :    0.003149618    0.006776387   -0.002940539
   4   C   :    0.000513996    0.007545806    0.006737800
   5   H   :   -0.002530929   -0.001803490    0.003666656
   6   H   :   -0.002825611   -0.000733187    0.002478734
   7   H   :    0.001217111   -0.000955148   -0.002556081
   8   H   :   -0.002006997   -0.002745279   -0.000566729
   9   H   :   -0.001135263    0.000896061   -0.003206199
  10   H   :    0.000983454   -0.003766124   -0.001636522

Difference to translation invariance:
           :    0.0000000000   -0.0000000000   -0.0000000000

Norm of the cartesian gradient     ...    0.0231779370
RMS gradient                       ...    0.0042316930
MAX gradient                       ...    0.0118347461

-------
TIMINGS
-------

Total SCF gradient time            ...        0.296 sec

One electron gradient       ....       0.002 sec  (  0.5%)
Prescreening matrices       ....       0.005 sec  (  1.6%)
Two electron gradient       ....       0.097 sec  ( 32.7%)
XC gradient                 ....       0.063 sec  ( 21.2%)
------------------------------------------------------------------------------
                         ORCA GEOMETRY RELAXATION STEP
------------------------------------------------------------------------------

Reading the OPT-File                    .... done
Getting information on internals        .... done
Copying old internal coords+grads       .... done
Making the new internal coordinates     .... (new redundants).... done
Validating the new internal coordinates .... (new redundants).... done
Calculating the B-matrix                .... done
[...]
Average number of shells per batch           ...    19.00 (45.24%)
Average number of basis functions per batch  ...    37.00 (43.02%)
Average number of large shells per batch     ...    14.75 (77.63%)
Average number of large basis fcns per batch ...    28.50 (77.03%)
Maximum spatial batch extension              ...  19.49, 15.73, 22.04 au
Average spatial batch extension              ...   0.47,  0.45,  0.48 au

Time for grid setup =    0.023 sec

--------------
SCF ITERATIONS
--------------
ITER       Energy         Delta-E        Max-DP      RMS-DP      [F,P]     Damp
               ***  Starting incremental Fock matrix formation  ***
                      *** Initiating the SOSCF procedure ***
                      *** Re-Reading the Fockian *** 
                      *** Removing any level shift *** 
ITER      Energy       Delta-E        Grad      Rot      Max-DP    RMS-DP
  0   -192.78632158 -192.7863215791  0.000322  0.000322  0.000876  0.000033
               *** Restarting incremental Fock matrix formation ***
  1   -192.78632582  -0.0000042431  0.000109  0.000202  0.000305  0.000015
  2   -192.78632628  -0.0000004622  0.000018  0.000051  0.000051  0.000004
  3   -192.78632629  -0.0000000036  0.000036  0.000043  0.000051  0.000002
  4   -192.78632629  -0.0000000064  0.000011  0.000012  0.000021  0.000001
  5   -192.78632630  -0.0000000010  0.000004  0.000003  0.000012  0.000000
                 **** Energy Check signals convergence ****
              ***Rediagonalizing the Fockian in SOSCF/NRSCF***

               *****************************************************
               *                     SUCCESS                       *
               *           SCF CONVERGED AFTER   6 CYCLES          *
               *****************************************************

Setting up the final grid:

General Integration Accuracy     IntAcc      ...  4.670
Radial Grid Type                 RadialGrid  ... Gauss-Chebyshev
Angular Grid (max. acc.)         AngularGrid ... Lebedev-302
Angular grid pruning method      GridPruning ... 3 (G Style)
Weight generation scheme         WeightScheme... Becke
Basis function cutoff            BFCut       ...    1.0000e-11
Integration weight cutoff        WCut        ...    1.0000e-14
Grids for H and He will be reduced by one unit

# of grid points (after initial pruning)     ...  45212 (   0.0 sec)
# of grid points (after weights+screening)   ...  42637 (   0.0 sec)
nearest neighbour list constructed           ...    0.0 sec
Grid point re-assignment to atoms done       ...    0.0 sec
Grid point division into batches done        ...    0.2 sec
Reduced shell lists constructed in    0.2 sec

Total number of grid points                  ...    42637
Total number of batches                      ...      673
Average number of points per batch           ...       63
Average number of grid points per atom       ...     4264
Average number of shells per batch           ...    11.81 (28.13%)
Average number of basis functions per batch  ...    20.56 (23.90%)
Average number of large shells per batch     ...     8.22 (69.59%)
Average number of large basis fcns per batch ...    14.22 (69.19%)
Maximum spatial batch extension              ...  15.58, 14.28, 15.54 au
Average spatial batch extension              ...   0.31,  0.30,  0.31 au

Final grid set up in    0.2 sec
Final integration                            ... done (   0.0 sec)
Change in XC energy                          ...     0.000067730
Integrated number of electrons               ...    31.999969209
Previous integrated no of electrons          ...    32.000460096

----------------
TOTAL SCF ENERGY
----------------

Total Energy       :         -192.78625857 Eh           -5245.98080 eV

Components:
Nuclear Repulsion  :          119.48323350 Eh            3251.30408 eV
Electronic Energy  :         -312.26949207 Eh           -8497.28487 eV
One Electron Energy:         -497.27526808 Eh          -13531.54798 eV
Two Electron Energy:          185.00577601 Eh            5034.26310 eV

Virial components:
Potential Energy   :         -383.75766890 Eh          -10442.57706 eV
Kinetic Energy     :          190.97141034 Eh            5196.59627 eV
Virial Ratio       :            2.00950325


DFT components:
N(Alpha)           :       15.999984604704 electrons
N(Beta)            :       15.999984604704 electrons
N(Total)           :       31.999969209407 electrons
E(X)               :      -19.316345361899 Eh       
E(C)               :       -1.048283070121 Eh       
E(XC)              :      -20.364628432020 Eh       
DFET-embed. en.    :        0.000000000000 Eh       

---------------
SCF CONVERGENCE
---------------

  Last Energy change         ...   -4.5003e-10  Tolerance :   1.0000e-08
  Last MAX-Density change    ...    3.0892e-06  Tolerance :   1.0000e-07
  Last RMS-Density change    ...    1.7109e-07  Tolerance :   5.0000e-09
  Last Orbital Gradient      ...    1.0892e-06  Tolerance :   1.0000e-05
  Last Orbital Rotation      ...    2.2000e-06  Tolerance :   1.0000e-05

             **** THE GBW FILE WAS UPDATED (acetoneOpt.gbw) ****
             **** DENSITY FILE WAS UPDATED (acetoneOpt.scfp) ****
             **** ENERGY FILE WAS UPDATED (acetoneOpt.en.tmp) ****
             **** THE GBW FILE WAS UPDATED (acetoneOpt.gbw) ****
             **** DENSITY FILE WAS UPDATED (acetoneOpt.scfp) ****
----------------
ORBITAL ENERGIES
----------------

  NO   OCC          E(Eh)            E(eV) 
   0   2.0000     -19.195412      -522.3337 
   1   2.0000     -10.320661      -280.8395 
   2   2.0000     -10.239743      -278.6376 
   3   2.0000     -10.239350      -278.6269 
   4   2.0000      -1.058976       -28.8162 
   5   2.0000      -0.785637       -21.3783 
   6   2.0000      -0.724902       -19.7256 
   7   2.0000      -0.542599       -14.7649 
   8   2.0000      -0.477851       -13.0030 
   9   2.0000      -0.475066       -12.9272 
  10   2.0000      -0.463988       -12.6257 
  11   2.0000      -0.414755       -11.2861 
  12   2.0000      -0.408478       -11.1153 
  13   2.0000      -0.390202       -10.6179 
  14   2.0000      -0.363500        -9.8913 
  15   2.0000      -0.260373        -7.0851 
  16   0.0000      -0.006368        -0.1733 
  17   0.0000       0.061196         1.6652 
  18   0.0000       0.117618         3.2006 
  19   0.0000       0.124251         3.3811 
  20   0.0000       0.132126         3.5953 
  21   0.0000       0.154597         4.2068 
  22   0.0000       0.157421         4.2837 
  23   0.0000       0.200353         5.4519 
  24   0.0000       0.283232         7.7071 
  25   0.0000       0.286448         7.7947 
  26   0.0000       0.421632        11.4732 
  27   0.0000       0.449136        12.2216 
  28   0.0000       0.479087        13.0366 
  29   0.0000       0.487721        13.2716 
  30   0.0000       0.515439        14.0258 
  31   0.0000       0.605446        16.4750 
  32   0.0000       0.612799        16.6751 
  33   0.0000       0.627325        17.0704 
  34   0.0000       0.648310        17.6414 
  35   0.0000       0.648989        17.6599 
  36   0.0000       0.668825        18.1997 
  37   0.0000       0.688798        18.7432 
  38   0.0000       0.695584        18.9278 
  39   0.0000       0.702799        19.1241 
  40   0.0000       0.717729        19.5304 
  41   0.0000       0.718924        19.5629 
  42   0.0000       0.830961        22.6116 
  43   0.0000       0.941600        25.6222 
  44   0.0000       1.010060        27.4851 
  45   0.0000       1.040104        28.3027 
  46   0.0000       1.129180        30.7265 
  47   0.0000       1.197869        32.5957 
  48   0.0000       1.307914        35.5902 
  49   0.0000       1.351650        36.7803 
  50   0.0000       1.440831        39.2070 
  51   0.0000       1.516839        41.2753 
  52   0.0000       1.522434        41.4275 
  53   0.0000       1.558332        42.4044 
  54   0.0000       1.604348        43.6565 
  55   0.0000       1.621092        44.1121 
  56   0.0000       1.705362        46.4053 
  57   0.0000       1.708964        46.5033 
  58   0.0000       1.773292        48.2537 
  59   0.0000       1.790170        48.7130 
  60   0.0000       1.797520        48.9130 
  61   0.0000       1.803460        49.0746 
  62   0.0000       1.845774        50.2261 
  63   0.0000       1.934419        52.6382 
  64   0.0000       1.994566        54.2749 
  65   0.0000       2.040788        55.5327 
  66   0.0000       2.081908        56.6516 
  67   0.0000       2.169379        59.0318 
  68   0.0000       2.325049        63.2678 
  69   0.0000       2.348821        63.9147 
  70   0.0000       2.369177        64.4686 
  71   0.0000       2.463942        67.0473 
  72   0.0000       2.467795        67.1521 
  73   0.0000       2.482261        67.5458 
  74   0.0000       2.646664        72.0194 
  75   0.0000       2.683360        73.0180 
  76   0.0000       2.710866        73.7664 
  77   0.0000       2.737643        74.4950 
  78   0.0000       2.846806        77.4655 
  79   0.0000       2.890365        78.6508 
  80   0.0000       2.917092        79.3781 
  81   0.0000       2.967183        80.7411 
  82   0.0000       3.042032        82.7779 
  83   0.0000       3.185170        86.6729 
  84   0.0000       3.409981        92.7903 
  85   0.0000       3.638142        98.9989 

                    ********************************
                    * MULLIKEN POPULATION ANALYSIS *
                    ********************************

-----------------------
MULLIKEN ATOMIC CHARGES
-----------------------
   0 O :   -0.221894
   1 C :   -0.015114
   2 C :   -0.074790
   3 C :   -0.071749
   4 H :    0.063532
   5 H :    0.061119
   6 H :    0.068490
   7 H :    0.065351
   8 H :    0.065922
   9 H :    0.059133
Sum of atomic charges:   -0.0000000

--------------------------------
MULLIKEN REDUCED ORBITAL CHARGES
--------------------------------
  0 O s       :     3.766332  s :     3.766332
      pz      :     1.773183  p :     4.436959
      px      :     1.319298
      py      :     1.344478
      dz2     :     0.002228  d :     0.018603
      dxz     :     0.002535
      dyz     :     0.001959
      dx2y2   :     0.005983
      dxy     :     0.005899
  1 C s       :     3.179751  s :     3.179751
      pz      :     1.025179  p :     2.735054
      px      :     0.858994
      py      :     0.850880
      dz2     :     0.016039  d :     0.100309
      dxz     :     0.027332
      dyz     :     0.020580
      dx2y2   :     0.021145
      dxy     :     0.015213
  2 C s       :     3.022648  s :     3.022648
      pz      :     1.002016  p :     3.028742
      px      :     1.011881
      py      :     1.014845
      dz2     :     0.005976  d :     0.023400
      dxz     :     0.003931
      dyz     :     0.004818
      dx2y2   :     0.006838
      dxy     :     0.001837
  3 C s       :     3.020104  s :     3.020104
      pz      :     0.983016  p :     3.028212
      px      :     1.025280
      py      :     1.019915
      dz2     :     0.006257  d :     0.023434
      dxz     :     0.004966
      dyz     :     0.003852
      dx2y2   :     0.005797
      dxy     :     0.002561
  4 H s       :     0.913099  s :     0.913099
      pz      :     0.011679  p :     0.023370
      px      :     0.006417
      py      :     0.005273
  5 H s       :     0.914372  s :     0.914372
      pz      :     0.004523  p :     0.024509
      px      :     0.014702
      py      :     0.005283
  6 H s       :     0.906661  s :     0.906661
      pz      :     0.004865  p :     0.024849
      px      :     0.005850
      py      :     0.014134
  7 H s       :     0.911289  s :     0.911289
      pz      :     0.008452  p :     0.023360
      px      :     0.007398
      py      :     0.007511
  8 H s       :     0.909222  s :     0.909222
      pz      :     0.004557  p :     0.024856
      px      :     0.013749
      py      :     0.006549
  9 H s       :     0.916331  s :     0.916331
      pz      :     0.005155  p :     0.024536
      px      :     0.005348
      py      :     0.014034


                     *******************************
                     * LOEWDIN POPULATION ANALYSIS *
                     *******************************

----------------------
LOEWDIN ATOMIC CHARGES
----------------------
   0 O :   -0.151027
   1 C :    0.073482
   2 C :   -0.098578
   3 C :   -0.097871
   4 H :    0.042838
   5 H :    0.044158
   6 H :    0.050256
   7 H :    0.043059
   8 H :    0.049604
   9 H :    0.044080

-------------------------------
LOEWDIN REDUCED ORBITAL CHARGES
-------------------------------
  0 O s       :     3.548249  s :     3.548249
      pz      :     1.776063  p :     4.571069
      px      :     1.397055
      py      :     1.397951
      dz2     :     0.004376  d :     0.031709
      dxz     :     0.004486
      dyz     :     0.003240
      dx2y2   :     0.007303
      dxy     :     0.012305
  1 C s       :     2.883535  s :     2.883535
      pz      :     1.027493  p :     2.822120
      px      :     0.911857
      py      :     0.882769
      dz2     :     0.035661  d :     0.220864
      dxz     :     0.063815
      dyz     :     0.046419
      dx2y2   :     0.037276
      dxy     :     0.037693
  2 C s       :     2.856986  s :     2.856986
      pz      :     1.052235  p :     3.176484
      px      :     1.063502
      py      :     1.060747
      dz2     :     0.016683  d :     0.065109
      dxz     :     0.010841
      dyz     :     0.013663
      dx2y2   :     0.018811
      dxy     :     0.005110
  3 C s       :     2.856720  s :     2.856720
      pz      :     1.041925  p :     3.175951
      px      :     1.066503
      py      :     1.067524
      dz2     :     0.017671  d :     0.065200
      dxz     :     0.014317
      dyz     :     0.010724
      dx2y2   :     0.015555
      dxy     :     0.006933
  4 H s       :     0.889740  s :     0.889740
      pz      :     0.035742  p :     0.067423
      px      :     0.017305
      py      :     0.014375
  5 H s       :     0.888228  s :     0.888228
      pz      :     0.012856  p :     0.067614
      px      :     0.041009
      py      :     0.013748
  6 H s       :     0.881947  s :     0.881947
      pz      :     0.013760  p :     0.067797
      px      :     0.014386
      py      :     0.039651
  7 H s       :     0.889491  s :     0.889491
      pz      :     0.027100  p :     0.067450
      px      :     0.019875
      py      :     0.020475
  8 H s       :     0.882547  s :     0.882547
      pz      :     0.013462  p :     0.067848
      px      :     0.038291
      py      :     0.016094
  9 H s       :     0.888298  s :     0.888298
      pz      :     0.015199  p :     0.067622
      px      :     0.013584
      py      :     0.038840


                      *****************************
                      * MAYER POPULATION ANALYSIS *
                      *****************************

  NA   - Mulliken gross atomic population
  ZA   - Total nuclear charge
  QA   - Mulliken gross atomic charge
  VA   - Mayer's total valence
  BVA  - Mayer's bonded valence
  FA   - Mayer's free valence

  ATOM       NA         ZA         QA         VA         BVA        FA
  0 O      8.2219     8.0000    -0.2219     2.2405     2.2405    -0.0000
  1 C      6.0151     6.0000    -0.0151     4.2499     4.2499    -0.0000
  2 C      6.0748     6.0000    -0.0748     3.8269     3.8269     0.0000
  3 C      6.0717     6.0000    -0.0717     3.8281     3.8281    -0.0000
  4 H      0.9365     1.0000     0.0635     1.0118     1.0118    -0.0000
  5 H      0.9389     1.0000     0.0611     0.9902     0.9902     0.0000
  6 H      0.9315     1.0000     0.0685     0.9902     0.9902    -0.0000
  7 H      0.9346     1.0000     0.0654     1.0115     1.0115    -0.0000
  8 H      0.9341     1.0000     0.0659     0.9905     0.9905     0.0000
  9 H      0.9409     1.0000     0.0591     0.9905     0.9905    -0.0000

  Mayer bond orders larger than 0.100000
B(  0-O ,  1-C ) :   2.1507 B(  1-C ,  2-C ) :   0.9991 B(  1-C ,  3-C ) :   1.0021 
B(  2-C ,  4-H ) :   0.9597 B(  2-C ,  5-H ) :   0.9564 B(  2-C ,  6-H ) :   0.9502 
B(  3-C ,  7-H ) :   0.9596 B(  3-C ,  8-H ) :   0.9487 B(  3-C ,  9-H ) :   0.9561 


-------
TIMINGS
-------

Total SCF time: 0 days 0 hours 0 min 1 sec 

Total time                  ....       1.457 sec
Sum of individual times     ....       1.212 sec  ( 83.2%)

Fock matrix formation       ....       0.963 sec  ( 66.1%)
  XC integration            ....       0.080 sec  (  8.4% of F)
    Basis function eval.    ....       0.012 sec  ( 15.4% of XC)
    Density eval.           ....       0.007 sec  (  9.1% of XC)
    XC-Functional eval.     ....       0.004 sec  (  5.1% of XC)
    XC-Potential eval.      ....       0.009 sec  ( 11.0% of XC)
Diagonalization             ....       0.002 sec  (  0.1%)
Density matrix formation    ....       0.003 sec  (  0.2%)
Population analysis         ....       0.003 sec  (  0.2%)
Initial guess               ....       0.004 sec  (  0.3%)
Orbital Transformation      ....       0.000 sec  (  0.0%)
Orbital Orthonormalization  ....       0.001 sec  (  0.1%)
DIIS solution               ....       0.000 sec  (  0.0%)
SOSCF solution              ....       0.006 sec  (  0.4%)
Grid generation             ....       0.232 sec  ( 15.9%)

-------------------------   --------------------
FINAL SINGLE POINT ENERGY      -192.786258565577
-------------------------   --------------------

                                *** OPTIMIZATION RUN DONE ***

                            ***************************************
                            *     ORCA property calculations      *
                            ***************************************

                                    ---------------------
                                    Active property flags
                                    ---------------------
   (+) Dipole Moment


------------------------------------------------------------------------------
                       ORCA ELECTRIC PROPERTIES CALCULATION
------------------------------------------------------------------------------

Dipole Moment Calculation                       ... on
Quadrupole Moment Calculation                   ... off
Polarizability Calculation                      ... off
GBWName                                         ... acetoneOpt.gbw
Electron density file                           ... acetoneOpt.scfp
The origin for moment calculation is the CENTER OF MASS  = (-1.807172, -3.558106 -0.277130)

-------------
DIPOLE MOMENT
-------------
                                X             Y             Z
Electronic contribution:      2.98294       2.51374       0.55396
Nuclear contribution   :     -3.83255      -3.22876      -0.71153
                        -----------------------------------------
Total Dipole Moment    :     -0.84962      -0.71502      -0.15757
                        -----------------------------------------
Magnitude (a.u.)       :      1.12158
Magnitude (Debye)      :      2.85082



--------------------
Rotational spectrum 
--------------------
 
Rotational constants in cm-1:     0.340004     0.284772     0.164513 
Rotational constants in MHz : 10193.068755  8537.250246  4931.967475 

 Dipole components along the rotational axes: 
x,y,z [a.u.] :    -0.000030    -1.121577    -0.000854 
x,y,z [Debye]:    -0.000077    -2.850821    -0.002170 

 

Timings for individual modules:

Sum of individual times         ...       42.938 sec (=   0.716 min)
GTO integral calculation        ...        8.199 sec (=   0.137 min)  19.1 %
SCF iterations                  ...       26.496 sec (=   0.442 min)  61.7 %
SCF Gradient evaluation         ...        7.797 sec (=   0.130 min)  18.2 %
Geometry relaxation             ...        0.447 sec (=   0.007 min)   1.0 %
                             ****ORCA TERMINATED NORMALLY****
TOTAL RUN TIME: 0 days 0 hours 0 minutes 43 seconds 718 msec
