
                                 *****************
                                 * O   R   C   A *
                                 *****************

           --- An Ab Initio, DFT and Semiempirical electronic structure package ---

                  #######################################################
                  #                        -***-                        #
                  #          Department of theory and spectroscopy      #
                  #               Directorship: Frank Neese             #
                  #        Max Planck Institute fuer Kohlenforschung    #
                  #                Kaiser Wilhelm Platz 1               #
                  #                 D-45470 Muelheim/Ruhr               #
                  #                      Germany                        #
                  #                                                     #
                  #                  All rights reserved                #
                  #                        -***-                        #
                  #######################################################


                         Program Version 4.2.1 -  RELEASE  -


 With contributions from (in alphabetic order):
   Daniel Aravena         : Magnetic Suceptibility
   Michael Atanasov       : Ab Initio Ligand Field Theory (pilot matlab implementation)
   Alexander A. Auer      : GIAO ZORA, VPT2
   Ute Becker             : Parallelization
   Giovanni Bistoni       : ED, misc. LED, open-shell LED, HFLD
   Martin Brehm           : Molecular dynamics
   Dmytro Bykov           : SCF Hessian
   Vijay G. Chilkuri      : MRCI spin determinant printing, contributions to CSF-ICE
   Dipayan Datta          : RHF DLPNO-CCSD density
   Achintya Kumar Dutta   : EOM-CC, STEOM-CC
   Dmitry Ganyushin       : Spin-Orbit,Spin-Spin,Magnetic field MRCI
   Miquel Garcia          : C-PCM Hessian, Gaussian charge scheme
   Yang Guo               : DLPNO-NEVPT2, CIM, IAO-localization
   Andreas Hansen         : Spin unrestricted coupled pair/coupled cluster methods
   Benjamin Helmich-Paris : CASSCF linear response (MC-RPA)
   Lee Huntington         : MR-EOM, pCC
   Robert Izsak           : Overlap fitted RIJCOSX, COSX-SCS-MP3, EOM
   Christian Kollmar      : KDIIS, OOCD, Brueckner-CCSD(T), CCSD density
   Simone Kossmann        : Meta GGA functionals, TD-DFT gradient, OOMP2, MP2 Hessian
   Martin Krupicka        : AUTO-CI
   Lucas Lang             : DCDCAS
   Dagmar Lenk            : GEPOL surface, SMD
   Dimitrios Liakos       : Extrapolation schemes; Compound Job, initial MDCI parallelization
   Dimitrios Manganas     : Further ROCIS development; embedding schemes
   Dimitrios Pantazis     : SARC Basis sets
   Taras Petrenko         : DFT Hessian,TD-DFT gradient, ASA, ECA, R-Raman, ABS, FL, XAS/XES, NRVS
   Peter Pinski           : DLPNO-MP2, DLPNO-MP2 Gradient
   Christoph Reimann      : Effective Core Potentials
   Marius Retegan         : Local ZFS, SOC
   Christoph Riplinger    : Optimizer, TS searches, QM/MM, DLPNO-CCSD(T), (RO)-DLPNO pert. Triples
   Tobias Risthaus        : Range-separated hybrids, TD-DFT gradient, RPA, STAB
   Michael Roemelt        : Original ROCIS implementation
   Masaaki Saitow         : Open-shell DLPNO-CCSD energy and density
   Barbara Sandhoefer     : DKH picture change effects
   Avijit Sen             : IP-ROCIS
   Kantharuban Sivalingam : CASSCF convergence, NEVPT2, FIC-MRCI
   Bernardo de Souza      : ESD, SOC TD-DFT
   Georgi Stoychev        : AutoAux, RI-MP2 NMR
   Willem Van den Heuvel  : Paramagnetic NMR
   Boris Wezisla          : Elementary symmetry handling
   Frank Wennmohs         : Technical directorship


 We gratefully acknowledge several colleagues who have allowed us to
 interface, adapt or use parts of their codes:
   Stefan Grimme, W. Hujo, H. Kruse,             : VdW corrections, initial TS optimization,
                  C. Bannwarth                     DFT functionals, gCP, sTDA/sTD-DF
   Ed Valeev, F. Pavosevic, A. Kumar             : LibInt (2-el integral package), F12 methods
   Garnet Chan, S. Sharma, J. Yang, R. Olivares  : DMRG
   Ulf Ekstrom                                   : XCFun DFT Library
   Mihaly Kallay                                 : mrcc  (arbitrary order and MRCC methods)
   Andreas Klamt, Michael Diedenhofen            : otool_cosmo (COSMO solvation model)
   Jiri Pittner, Ondrej Demel                    : Mk-CCSD
   Frank Weinhold                                : gennbo (NPA and NBO analysis)
   Christopher J. Cramer and Donald G. Truhlar   : smd solvation model
   Lars Goerigk                                  : TD-DFT with DH, B97 family of functionals
   V. Asgeirsson, H. Jonsson                     : NEB implementation
   FAccTs GmbH                                   : IRC, NEB, NEB-TS, Multilevel, MM, QM/MM, CI optimization
   S Lehtola, MJT Oliveira, MAL Marques          : LibXC Library


 Your calculation uses the libint2 library for the computation of 2-el integrals
 For citations please refer to: http://libint.valeyev.net

 Your ORCA version has been built with support for libXC version: 4.2.3
 For citations please refer to: https://tddft.org/programs/libxc/

 This ORCA versions uses:
   CBLAS   interface :  Fast vector & matrix operations
   LAPACKE interface :  Fast linear algebra routines
   SCALAPACK package :  Parallel linear algebra routines


----- Orbital basis set information -----
Your calculation utilizes the basis: def2-TZVP
   F. Weigend and R. Ahlrichs, Phys. Chem. Chem. Phys. 7, 3297 (2005).

================================================================================
                                        WARNINGS
                       Please study these warnings very carefully!
================================================================================


WARNING: Geometry Optimization
  ===> : Switching off AutoStart
         For restart on a previous wavefunction, please use MOREAD

INFO   : the flag for use of LIBINT has been found!

================================================================================
                                       INPUT FILE
================================================================================
NAME = acetoneOpt.inp
|  1> !PBE0 def2-TZVP OPT
|  2> 
|  3> *xyz 0 1
|  4> O  0.006  -0.848   0.086
|  5> C -0.873  -1.710  -0.085  
|  6> C -1.406  -2.648   0.972 
|  7> C -1.572  -1.974  -1.412 
|  8> H -1.093  -2.515   1.991  
|  9> H -2.463  -2.735   1.032 
| 10> H -1.069  -3.613   0.608 
| 11> H -0.905  -1.801  -2.305 
| 12> H -2.474  -1.426  -1.590 
| 13> H -1.800  -3.000  -1.522 
| 14> *
| 15> 
| 16> %pal
| 17>  nprocs 26
| 18> end
| 19> 
| 20> 
| 21>                          ****END OF INPUT****
================================================================================

                       *****************************
                       * Geometry Optimization Run *
                       *****************************

Geometry optimization settings:
Update method            Update   .... BFGS
Choice of coordinates    CoordSys .... Z-matrix Internals
Initial Hessian          InHess   .... Almoef's Model

Convergence Tolerances:
Energy Change            TolE     ....  5.0000e-06 Eh
Max. Gradient            TolMAXG  ....  3.0000e-04 Eh/bohr
RMS Gradient             TolRMSG  ....  1.0000e-04 Eh/bohr
Max. Displacement        TolMAXD  ....  4.0000e-03 bohr
RMS Displacement         TolRMSD  ....  2.0000e-03 bohr
Strict Convergence                ....  False
------------------------------------------------------------------------------
                        ORCA OPTIMIZATION COORDINATE SETUP
------------------------------------------------------------------------------

The optimization will be done in new redundant internal coordinates
Making redundant internal coordinates   ...  (new redundants) done
Evaluating the initial hessian          ...  (Almloef) done
Evaluating the coordinates              ...  done
Calculating the B-matrix                .... done
Calculating the G-matrix                .... done
Diagonalizing the G-matrix              .... done
The first mode is                       ....   12
The number of degrees of freedom        ....   24

    -----------------------------------------------------------------
                    Redundant Internal Coordinates


    -----------------------------------------------------------------
         Definition                    Initial Value    Approx d2E/dq
    -----------------------------------------------------------------
      1. B(C   1,O   0)                  1.2430         0.960469   
      2. B(C   2,C   1)                  1.5104         0.401527   
      3. B(C   3,C   1)                  1.5229         0.383446   
      4. B(H   4,C   2)                  1.0743         0.381546   
      5. B(H   5,C   2)                  1.0623         0.398717   
      6. B(H   6,C   2)                  1.0850         0.366735   
      7. B(H   7,C   3)                  1.1279         0.313241   
      8. B(H   8,C   3)                  1.0703         0.387094   
      9. B(H   9,C   3)                  1.0568         0.406857   
     10. A(O   0,C   1,C   3)          124.3811         0.427926   
     11. A(C   2,C   1,C   3)          109.8874         0.369520   
     12. A(O   0,C   1,C   2)          125.7313         0.431479   
     13. A(H   4,C   2,H   5)          104.2694         0.298269   
     14. A(C   1,C   2,H   5)          116.2020         0.333773   
     15. A(H   4,C   2,H   6)          109.7451         0.294346   
     16. A(C   1,C   2,H   4)          118.9553         0.331346   
     17. A(H   5,C   2,H   6)          104.7830         0.296403   
     18. A(C   1,C   2,H   6)          102.0028         0.329184   
     19. A(H   7,C   3,H   9)          101.1912         0.290049   
     20. A(C   1,C   3,H   9)          110.9796         0.332344   
     21. A(H   7,C   3,H   8)          106.7473         0.287796   
     22. A(C   1,C   3,H   8)          116.2932         0.329617   
     23. A(H   8,C   3,H   9)          107.3348         0.299917   
     24. A(C   1,C   3,H   7)          113.0698         0.318360   
     25. D(H   6,C   2,C   1,O   0)   -113.9130         0.011961   
     26. D(H   5,C   2,C   1,C   3)    -47.3269         0.011961   
     27. D(H   4,C   2,C   1,O   0)      6.9083         0.011961   
     28. D(H   6,C   2,C   1,C   3)     65.9617         0.011961   
     29. D(H   5,C   2,C   1,O   0)    132.7984         0.011961   
     30. D(H   4,C   2,C   1,C   3)   -173.2170         0.011961   
     31. D(H   7,C   3,C   1,O   0)     32.9844         0.010960   
     32. D(H   9,C   3,C   1,C   2)    -33.9845         0.010960   
     33. D(H   9,C   3,C   1,O   0)    145.8923         0.010960   
     34. D(H   8,C   3,C   1,C   2)     89.0671         0.010960   
     35. D(H   8,C   3,C   1,O   0)    -91.0561         0.010960   
     36. D(H   7,C   3,C   1,C   2)   -146.8924         0.010960   
    -----------------------------------------------------------------

Number of atoms                         .... 10
Number of degrees of freedom            .... 36

         *************************************************************
         *                GEOMETRY OPTIMIZATION CYCLE   1            *
         *************************************************************
---------------------------------
CARTESIAN COORDINATES (ANGSTROEM)
---------------------------------
  O      0.006000   -0.848000    0.086000
  C     -0.873000   -1.710000   -0.085000
  C     -1.406000   -2.648000    0.972000
  C     -1.572000   -1.974000   -1.412000
  H     -1.093000   -2.515000    1.991000
  H     -2.463000   -2.735000    1.032000
  H     -1.069000   -3.613000    0.608000
  H     -0.905000   -1.801000   -2.305000
  H     -2.474000   -1.426000   -1.590000
  H     -1.800000   -3.000000   -1.522000

----------------------------
CARTESIAN COORDINATES (A.U.)
----------------------------
  NO LB      ZA    FRAG     MASS         X           Y           Z
   0 O     8.0000    0    15.999    0.011338   -1.602488    0.162516
   1 C     6.0000    0    12.011   -1.649731   -3.231432   -0.160627
   2 C     6.0000    0    12.011   -2.656955   -5.003995    1.836814
   3 C     6.0000    0    12.011   -2.970649   -3.730319   -2.668293
   4 H     1.0000    0     1.008   -2.065471   -4.752661    3.762445
   5 H     1.0000    0     1.008   -4.654395   -5.168401    1.950197
   6 H     1.0000    0     1.008   -2.020117   -6.827581    1.148953
   7 H     1.0000    0     1.008   -1.710202   -3.403397   -4.355819
   8 H     1.0000    0     1.008   -4.675182   -2.694749   -3.004665
   9 H     1.0000    0     1.008   -3.401507   -5.669178   -2.876163

--------------------------------
INTERNAL COORDINATES (ANGSTROEM)
--------------------------------
 O      0   0   0     0.000000000000     0.00000000     0.00000000
 C      1   0   0     1.242950521944     0.00000000     0.00000000
 C      2   1   0     1.510358235651   125.73134107     0.00000000
 C      2   1   3     1.522900522030   124.38113193   180.14279171
 H      3   2   1     1.074252763552   118.95532359     6.90830946
 H      3   2   1     1.062270210446   116.20203901   132.79842628
 H      3   2   1     1.085029953504   102.00281170   246.08697916
 H      4   2   1     1.127948137106   113.06982630    32.98438329
 H      4   2   1     1.070323315639   116.29324672   268.94387707
 H      4   2   1     1.056768659641   110.97960969   145.89227280

---------------------------
INTERNAL COORDINATES (A.U.)
---------------------------
 O      0   0   0     0.000000000000     0.00000000     0.00000000
 C      1   0   0     2.348836084488     0.00000000     0.00000000
 C      2   1   0     2.854163429494   125.73134107     0.00000000
 C      2   1   3     2.877864915843   124.38113193   180.14279171
 H      3   2   1     2.030043521722   118.95532359     6.90830946
 H      3   2   1     2.007399777965   116.20203901   132.79842628
 H      3   2   1     2.050409459223   102.00281170   246.08697916
 H      4   2   1     2.131513072396   113.06982630    32.98438329
 H      4   2   1     2.022617941308   116.29324672   268.94387707
 H      4   2   1     1.997003353633   110.97960969   145.89227280

---------------------
BASIS SET INFORMATION
---------------------
There are 3 groups of distinct atoms

 Group   1 Type O   : 11s6p2d1f contracted to 5s3p2d1f pattern {62111/411/11/1}
 Group   2 Type C   : 11s6p2d1f contracted to 5s3p2d1f pattern {62111/411/11/1}
 Group   3 Type H   : 5s1p contracted to 3s1p pattern {311/1}

Atom   0O    basis set group =>   1
Atom   1C    basis set group =>   2
Atom   2C    basis set group =>   2
Atom   3C    basis set group =>   2
Atom   4H    basis set group =>   3
Atom   5H    basis set group =>   3
Atom   6H    basis set group =>   3
Atom   7H    basis set group =>   3
Atom   8H    basis set group =>   3
Atom   9H    basis set group =>   3


           ************************************************************
           *        Program running with 26 parallel MPI-processes    *
           *              working on a common directory               *
           ************************************************************
------------------------------------------------------------------------------
                           ORCA GTO INTEGRAL CALCULATION
------------------------------------------------------------------------------

                         BASIS SET STATISTICS AND STARTUP INFO

 # of primitive gaussian shells          ...  116
 # of primitive gaussian functions       ...  232
 # of contracted shells                  ...   68
 # of contracted basis functions         ...  160
 Highest angular momentum                ...    3
 Maximum contraction depth               ...    6
 Integral package used                   ... LIBINT
 Integral threshhold            Thresh   ...  2.500e-11
 Primitive cut-off              TCut     ...  2.500e-12


------------------------------ INTEGRAL EVALUATION ----------------------------


 * One electron integrals 
 Pre-screening matrix                    ... done
 Shell pair data                         ... done (   0.001 sec)



           ************************************************************
           *        Program running with 26 parallel MPI-processes    *
           *              working on a common directory               *
           ************************************************************
-------------------------------------------------------------------------------
                                 ORCA SCF
-------------------------------------------------------------------------------

------------
SCF SETTINGS
------------
Hamiltonian:
 Density Functional     Method          .... DFT(GTOs)
 Exchange Functional    Exchange        .... PBE
   PBE kappa parameter   XKappa         ....  0.804000
   PBE mue parameter    XMuePBE         ....  0.219520
 Correlation Functional Correlation     .... PBE
   PBE beta parameter  CBetaPBE         ....  0.066725
 LDA part of GGA corr.  LDAOpt          .... PW91-LDA
 Gradients option       PostSCFGGA      .... off
 Hybrid DFT is turned on
   Fraction HF Exchange ScalHFX         ....  0.250000
   Scaling of DF-GGA-X  ScalDFX         ....  0.750000
   Scaling of DF-GGA-C  ScalDFC         ....  1.000000
   Scaling of DF-LDA-C  ScalLDAC        ....  1.000000
   Perturbative correction              ....  0.000000
   Density functional embedding theory  .... OFF
   NL short-range parameter             ....  6.900000


General Settings:
 Integral files         IntName         .... acetoneOpt
 Hartree-Fock type      HFTyp           .... RHF
 Total Charge           Charge          ....    0
 Multiplicity           Mult            ....    1
 Number of Electrons    NEL             ....   32
 Basis Dimension        Dim             ....  160
 Nuclear Repulsion      ENuc            ....    118.6725678350 Eh

Convergence Acceleration:
 DIIS                   CNVDIIS         .... on
   Start iteration      DIISMaxIt       ....    12
   Startup error        DIISStart       ....  0.200000
   # of expansion vecs  DIISMaxEq       ....     5
   Bias factor          DIISBfac        ....   1.050
   Max. coefficient     DIISMaxC        ....  10.000
 Newton-Raphson         CNVNR           .... off
 SOSCF                  CNVSOSCF        .... on
   Start iteration      SOSCFMaxIt      ....   150
   Startup grad/error   SOSCFStart      ....  0.003300
 Level Shifting         CNVShift        .... on
   Level shift para.    LevelShift      ....    0.2500
   Turn off err/grad.   ShiftErr        ....    0.0010
 Zerner damping         CNVZerner       .... off
 Static damping         CNVDamp         .... on
   Fraction old density DampFac         ....    0.7000
   Max. Damping (<1)    DampMax         ....    0.9800
   Min. Damping (>=0)   DampMin         ....    0.0000
   Turn off err/grad.   DampErr         ....    0.1000
 Fernandez-Rico         CNVRico         .... off

SCF Procedure:
 Maximum # iterations   MaxIter         ....   125
 SCF integral mode      SCFMode         .... Direct
   Integral package                     .... LIBINT
 Reset frequency        DirectResetFreq ....    20
 Integral Threshold     Thresh          ....  2.500e-11 Eh
 Primitive CutOff       TCut            ....  2.500e-12 Eh

Convergence Tolerance:
 Convergence Check Mode ConvCheckMode   .... Total+1el-Energy
 Convergence forced     ConvForced      .... 0
 Energy Change          TolE            ....  1.000e-08 Eh
 1-El. energy change                    ....  1.000e-05 Eh
 Orbital Gradient       TolG            ....  1.000e-05
 Orbital Rotation angle TolX            ....  1.000e-05
 DIIS Error             TolErr          ....  5.000e-07


Diagonalization of the overlap matrix:
Smallest eigenvalue                        ... 4.451e-04
Time for diagonalization                   ...    0.011 sec
Threshold for overlap eigenvalues          ... 1.000e-08
Number of eigenvalues below threshold      ... 0
Time for construction of square roots      ...    0.003 sec
Total time needed                          ...    0.014 sec

-------------------
DFT GRID GENERATION
-------------------

General Integration Accuracy     IntAcc      ...  4.340
Radial Grid Type                 RadialGrid  ... Gauss-Chebyshev
Angular Grid (max. acc.)         AngularGrid ... Lebedev-110
Angular grid pruning method      GridPruning ... 3 (G Style)
Weight generation scheme         WeightScheme... Becke
Basis function cutoff            BFCut       ...    1.0000e-11
Integration weight cutoff        WCut        ...    1.0000e-14
Grids for H and He will be reduced by one unit

# of grid points (after initial pruning)     ...  11448 (   0.0 sec)
# of grid points (after weights+screening)   ...  10901 (   0.0 sec)
nearest neighbour list constructed           ...    0.0 sec
Grid point re-assignment to atoms done       ...    0.0 sec
Grid point division into batches done        ...    0.0 sec
Reduced shell lists constructed in    0.0 sec

Total number of grid points                  ...    10901
Total number of batches                      ...      174
Average number of points per batch           ...       62
Average number of grid points per atom       ...     1090
Average number of shells per batch           ...    28.00 (41.18%)
Average number of basis functions per batch  ...    66.50 (41.56%)
Average number of large shells per batch     ...    20.62 (73.66%)
Average number of large basis fcns per batch ...    47.12 (70.86%)
Maximum spatial batch extension              ...  20.49, 15.56, 17.87 au
Average spatial batch extension              ...   0.51,  0.46,  0.48 au

Time for grid setup =    0.028 sec

------------------------------
INITIAL GUESS: MODEL POTENTIAL
------------------------------
Loading Hartree-Fock densities                     ... done
Calculating cut-offs                               ... done
Setting up the integral package                    ... done
Initializing the effective Hamiltonian             ... done
Starting the Coulomb interaction                   ... done (   0.0 sec)
Reading the grid                                   ... done
Mapping shells                                     ... done
Starting the XC term evaluation                    ... done (   0.0 sec)
  promolecular density results
     # of electrons  =     31.992835722
     EX              =    -25.224096428
     EC              =     -1.033070116
     EX+EC           =    -26.257166545
Transforming the Hamiltonian                       ... done (   0.0 sec)
Diagonalizing the Hamiltonian                      ... done (   0.0 sec)
Back transforming the eigenvectors                 ... done (   0.0 sec)
Now organizing SCF variables                       ... done
                      ------------------
                      INITIAL GUESS DONE (   0.1 sec)
                      ------------------
--------------
SCF ITERATIONS
--------------
ITER       Energy         Delta-E        Max-DP      RMS-DP      [F,P]     Damp
               ***  Starting incremental Fock matrix formation  ***
  0   -192.8153403600   0.000000000000 0.07806052  0.00195967  0.2485229 0.7000
  1   -192.8971928585  -0.081852498500 0.07402594  0.00158377  0.0983099 0.7000
                               ***Turning on DIIS***
  2   -192.9280868902  -0.030894031685 0.08925105  0.00227870  0.0446282 0.0000
  3   -192.9769563359  -0.048869445708 0.07269720  0.00134530  0.0531800 0.0000
  4   -192.9875602519  -0.010603915970 0.02032676  0.00040247  0.0172477 0.0000
  5   -192.9884533581  -0.000893106215 0.00968961  0.00018084  0.0042823 0.0000
                      *** Initiating the SOSCF procedure ***
                           *** Shutting down DIIS ***
                      *** Re-Reading the Fockian *** 
                      *** Removing any level shift *** 
ITER      Energy       Delta-E        Grad      Rot      Max-DP    RMS-DP
  6   -192.98848612  -0.0000327612  0.000290  0.000290  0.006440  0.000122
               *** Restarting incremental Fock matrix formation ***
  7   -192.98848818  -0.0000020614  0.000059  0.000160  0.000400  0.000009
  8   -192.98848813   0.0000000499  0.000106  0.000134  0.000147  0.000004
  9   -192.98848829  -0.0000001621  0.000041  0.000079  0.000106  0.000003
 10   -192.98848828   0.0000000165  0.000047  0.000042  0.000078  0.000002
                  ***Gradient check signals convergence***
              ***Rediagonalizing the Fockian in SOSCF/NRSCF***

               *****************************************************
               *                     SUCCESS                       *
               *           SCF CONVERGED AFTER  11 CYCLES          *
               *****************************************************

Setting up the final grid:

General Integration Accuracy     IntAcc      ...  4.670
Radial Grid Type                 RadialGrid  ... Gauss-Chebyshev
Angular Grid (max. acc.)         AngularGrid ... Lebedev-302
Angular grid pruning method      GridPruning ... 3 (G Style)
Weight generation scheme         WeightScheme... Becke
Basis function cutoff            BFCut       ...    1.0000e-11
Integration weight cutoff        WCut        ...    1.0000e-14
Grids for H and He will be reduced by one unit

# of grid points (after initial pruning)     ...  45212 (   0.0 sec)
# of grid points (after weights+screening)   ...  42613 (   0.0 sec)
nearest neighbour list constructed           ...    0.0 sec
Grid point re-assignment to atoms done       ...    0.0 sec
Grid point division into batches done        ...    0.2 sec
Reduced shell lists constructed in    0.2 sec

Total number of grid points                  ...    42613
Total number of batches                      ...      672
Average number of points per batch           ...       63
Average number of grid points per atom       ...     4261
Average number of shells per batch           ...    17.89 (26.31%)
Average number of basis functions per batch  ...    38.26 (23.91%)
Average number of large shells per batch     ...    12.52 (69.98%)
Average number of large basis fcns per batch ...    25.04 (65.44%)
Maximum spatial batch extension              ...  16.97, 15.43, 14.69 au
Average spatial batch extension              ...   0.33,  0.33,  0.31 au

Final grid set up in    0.2 sec
Final integration                            ... done (   0.1 sec)
Change in XC energy                          ...    -0.000317575
Integrated number of electrons               ...    32.000038571
Previous integrated no of electrons          ...    31.997457112

----------------
TOTAL SCF ENERGY
----------------

Total Energy       :         -192.98880588 Eh           -5251.49239 eV

Components:
Nuclear Repulsion  :          118.67256783 Eh            3229.24474 eV
Electronic Energy  :         -311.66137371 Eh           -8480.73713 eV
One Electron Energy:         -495.90668370 Eh          -13494.30690 eV
Two Electron Energy:          184.24530998 Eh            5013.56977 eV

Virial components:
Potential Energy   :         -385.03316649 Eh          -10477.28512 eV
Kinetic Energy     :          192.04436061 Eh            5225.79273 eV
Virial Ratio       :            2.00491785


DFT components:
N(Alpha)           :       16.000019285696 electrons
N(Beta)            :       16.000019285696 electrons
N(Total)           :       32.000038571392 electrons
E(X)               :      -19.356778264668 Eh       
E(C)               :       -1.041183176548 Eh       
E(XC)              :      -20.397961441216 Eh       
DFET-embed. en.    :        0.000000000000 Eh       

---------------
SCF CONVERGENCE
---------------

  Last Energy change         ...   -2.8201e-08  Tolerance :   1.0000e-08
  Last MAX-Density change    ...    1.6986e-06  Tolerance :   1.0000e-07
  Last RMS-Density change    ...    6.0527e-08  Tolerance :   5.0000e-09
  Last Orbital Gradient      ...    7.9920e-07  Tolerance :   1.0000e-05
  Last Orbital Rotation      ...    1.5578e-06  Tolerance :   1.0000e-05

             **** THE GBW FILE WAS UPDATED (acetoneOpt.gbw) ****
             **** DENSITY FILE WAS UPDATED (acetoneOpt.scfp) ****
             **** ENERGY FILE WAS UPDATED (acetoneOpt.en.tmp) ****
             **** THE GBW FILE WAS UPDATED (acetoneOpt.gbw) ****
             **** DENSITY FILE WAS UPDATED (acetoneOpt.scfp) ****
----------------
ORBITAL ENERGIES
----------------

  NO   OCC          E(Eh)            E(eV) 
   0   2.0000     -19.198758      -522.4248 
   1   2.0000     -10.326474      -280.9977 
   2   2.0000     -10.227032      -278.2917 
   3   2.0000     -10.226294      -278.2716 
   4   2.0000      -1.055425       -28.7196 
   5   2.0000      -0.808240       -21.9933 
   6   2.0000      -0.735851       -20.0235 
   7   2.0000      -0.567650       -15.4465 
   8   2.0000      -0.484171       -13.1750 
   9   2.0000      -0.474815       -12.9204 
  10   2.0000      -0.467559       -12.7229 
  11   2.0000      -0.424349       -11.5471 
  12   2.0000      -0.411364       -11.1938 
  13   2.0000      -0.385518       -10.4905 
  14   2.0000      -0.361917        -9.8483 
  15   2.0000      -0.269578        -7.3356 
  16   0.0000      -0.024178        -0.6579 
  17   0.0000       0.036808         1.0016 
  18   0.0000       0.085778         2.3342 
  19   0.0000       0.100178         2.7260 
  20   0.0000       0.117947         3.2095 
  21   0.0000       0.129164         3.5147 
  22   0.0000       0.132835         3.6146 
  23   0.0000       0.139620         3.7993 
  24   0.0000       0.177322         4.8252 
  25   0.0000       0.184045         5.0081 
  26   0.0000       0.215389         5.8610 
  27   0.0000       0.235185         6.3997 
  28   0.0000       0.242989         6.6121 
  29   0.0000       0.295139         8.0311 
  30   0.0000       0.317590         8.6421 
  31   0.0000       0.320047         8.7089 
  32   0.0000       0.363021         9.8783 
  33   0.0000       0.382178        10.3996 
  34   0.0000       0.398467        10.8428 
  35   0.0000       0.401233        10.9181 
  36   0.0000       0.423268        11.5177 
  37   0.0000       0.436826        11.8866 
  38   0.0000       0.453932        12.3521 
  39   0.0000       0.464757        12.6467 
  40   0.0000       0.473913        12.8958 
  41   0.0000       0.485794        13.2191 
  42   0.0000       0.559623        15.2281 
  43   0.0000       0.566200        15.4071 
  44   0.0000       0.586468        15.9586 
  45   0.0000       0.597625        16.2622 
  46   0.0000       0.675356        18.3774 
  47   0.0000       0.689036        18.7496 
  48   0.0000       0.728321        19.8186 
  49   0.0000       0.801310        21.8047 
  50   0.0000       0.818806        22.2809 
  51   0.0000       0.846884        23.0449 
  52   0.0000       0.892554        24.2876 
  53   0.0000       0.942295        25.6412 
  54   0.0000       0.955281        25.9945 
  55   0.0000       0.979761        26.6607 
  56   0.0000       1.000945        27.2371 
  57   0.0000       1.054321        28.6895 
  58   0.0000       1.102677        30.0054 
  59   0.0000       1.122797        30.5529 
  60   0.0000       1.139800        31.0155 
  61   0.0000       1.223216        33.2854 
  62   0.0000       1.386375        37.7252 
  63   0.0000       1.422908        38.7193 
  64   0.0000       1.452730        39.5308 
  65   0.0000       1.512827        41.1661 
  66   0.0000       1.516758        41.2731 
  67   0.0000       1.521539        41.4032 
  68   0.0000       1.538079        41.8533 
  69   0.0000       1.542015        41.9604 
  70   0.0000       1.552369        42.2421 
  71   0.0000       1.581700        43.0403 
  72   0.0000       1.600441        43.5502 
  73   0.0000       1.625822        44.2409 
  74   0.0000       1.653860        45.0038 
  75   0.0000       1.716030        46.6956 
  76   0.0000       1.824396        49.6443 
  77   0.0000       1.848205        50.2922 
  78   0.0000       1.895946        51.5913 
  79   0.0000       1.951115        53.0925 
  80   0.0000       1.964048        53.4445 
  81   0.0000       1.986520        54.0560 
  82   0.0000       2.024834        55.0985 
  83   0.0000       2.074479        56.4494 
  84   0.0000       2.117223        57.6126 
  85   0.0000       2.131713        58.0069 
  86   0.0000       2.175079        59.1869 
  87   0.0000       2.196127        59.7597 
  88   0.0000       2.236598        60.8609 
  89   0.0000       2.344279        63.7911 
  90   0.0000       2.368999        64.4637 
  91   0.0000       2.386562        64.9417 
  92   0.0000       2.411801        65.6285 
  93   0.0000       2.424219        65.9663 
  94   0.0000       2.474022        67.3216 
  95   0.0000       2.532272        68.9066 
  96   0.0000       2.576615        70.1133 
  97   0.0000       2.581575        70.2482 
  98   0.0000       2.613469        71.1161 
  99   0.0000       2.635938        71.7275 
 100   0.0000       2.683781        73.0294 
 101   0.0000       2.757888        75.0459 
 102   0.0000       2.782522        75.7163 
 103   0.0000       2.809151        76.4409 
 104   0.0000       2.824664        76.8630 
 105   0.0000       2.901784        78.9616 
 106   0.0000       2.927053        79.6491 
 107   0.0000       2.957735        80.4841 
 108   0.0000       2.998889        81.6039 
 109   0.0000       3.059944        83.2653 
 110   0.0000       3.072088        83.5958 
 111   0.0000       3.085138        83.9509 
 112   0.0000       3.106640        84.5360 
 113   0.0000       3.142037        85.4992 
 114   0.0000       3.159578        85.9765 
 115   0.0000       3.201570        87.1192 
 116   0.0000       3.235456        88.0412 
 117   0.0000       3.258120        88.6580 
 118   0.0000       3.288747        89.4914 
 119   0.0000       3.323882        90.4474 
 120   0.0000       3.370849        91.7255 
 121   0.0000       3.385138        92.1143 
 122   0.0000       3.448858        93.8482 
 123   0.0000       3.481676        94.7412 
 124   0.0000       3.542921        96.4078 
 125   0.0000       3.590595        97.7051 
 126   0.0000       3.682824       100.2147 
 127   0.0000       3.715803       101.1121 
 128   0.0000       3.847521       104.6964 
 129   0.0000       3.892474       105.9196 
 130   0.0000       3.916512       106.5737 
 131   0.0000       3.945798       107.3706 
 132   0.0000       3.983295       108.3910 
 133   0.0000       4.066704       110.6607 
 134   0.0000       4.157182       113.1227 
 135   0.0000       4.270846       116.2156 
 136   0.0000       4.319797       117.5477 
 137   0.0000       4.393809       119.5616 
 138   0.0000       4.432096       120.6035 
 139   0.0000       4.466030       121.5269 
 140   0.0000       4.503485       122.5460 
 141   0.0000       4.609334       125.4264 
 142   0.0000       4.754411       129.3741 
 143   0.0000       4.801178       130.6467 
 144   0.0000       5.199551       141.4870 
 145   0.0000       5.206173       141.6672 
 146   0.0000       5.569011       151.5405 
 147   0.0000       5.617301       152.8545 
 148   0.0000       6.092422       165.7832 
 149   0.0000       6.268257       170.5679 
 150   0.0000       6.388387       173.8368 
 151   0.0000       6.475174       176.1984 
 152   0.0000       6.508224       177.0978 
 153   0.0000       6.825697       185.7367 
 154   0.0000       6.975623       189.8163 
 155   0.0000       7.043750       191.6702 
 156   0.0000      22.400118       609.5382 
 157   0.0000      22.452755       610.9705 
 158   0.0000      22.931699       624.0032 
 159   0.0000      43.902442      1194.6462 

                    ********************************
                    * MULLIKEN POPULATION ANALYSIS *
                    ********************************

-----------------------
MULLIKEN ATOMIC CHARGES
-----------------------
   0 O :   -0.319902
   1 C :    0.241219
   2 C :   -0.388592
   3 C :   -0.388645
   4 H :    0.144079
   5 H :    0.152992
   6 H :    0.133976
   7 H :    0.143935
   8 H :    0.147376
   9 H :    0.133562
Sum of atomic charges:   -0.0000000

--------------------------------
MULLIKEN REDUCED ORBITAL CHARGES
--------------------------------
  0 O s       :     3.832945  s :     3.832945
      pz      :     1.779746  p :     4.454299
      px      :     1.329529
      py      :     1.345023
      dz2     :     0.003359  d :     0.030950
      dxz     :     0.004203
      dyz     :     0.004214
      dx2y2   :     0.010716
      dxy     :     0.008458
      f0      :     0.000233  f :     0.001709
      f+1     :     0.000201
      f-1     :     0.000192
      f+2     :     0.000037
      f-2     :     0.000281
      f+3     :     0.000386
      f-3     :     0.000379
  1 C s       :     3.159471  s :     3.159471
      pz      :     0.932605  p :     2.385840
      px      :     0.725935
      py      :     0.727300
      dz2     :     0.031827  d :     0.196938
      dxz     :     0.048342
      dyz     :     0.043905
      dx2y2   :     0.050751
      dxy     :     0.022113
      f0      :     0.003076  f :     0.016533
      f+1     :     0.001530
      f-1     :     0.001892
      f+2     :     0.001117
      f-2     :     0.003614
      f+3     :     0.002646
      f-3     :     0.002659
  2 C s       :     3.204511  s :     3.204511
      pz      :     1.039449  p :     3.131845
      px      :     1.061345
      py      :     1.031051
      dz2     :     0.017970  d :     0.049213
      dxz     :     0.005489
      dyz     :     0.009164
      dx2y2   :     0.012011
      dxy     :     0.004578
      f0      :     0.000576  f :     0.003023
      f+1     :     0.000416
      f-1     :     0.000556
      f+2     :     0.000417
      f-2     :     0.000317
      f+3     :     0.000593
      f-3     :     0.000148
  3 C s       :     3.196895  s :     3.196895
      pz      :     1.003409  p :     3.141795
      px      :     1.069323
      py      :     1.069062
      dz2     :     0.013828  d :     0.046913
      dxz     :     0.012661
      dyz     :     0.005865
      dx2y2   :     0.008550
      dxy     :     0.006009
      f0      :     0.000504  f :     0.003041
      f+1     :     0.001040
      f-1     :     0.000335
      f+2     :     0.000293
      f-2     :     0.000271
      f+3     :     0.000084
      f-3     :     0.000515
  4 H s       :     0.833597  s :     0.833597
      pz      :     0.012486  p :     0.022324
      px      :     0.005339
      py      :     0.004499
  5 H s       :     0.824304  s :     0.824304
      pz      :     0.005011  p :     0.022704
      px      :     0.012379
      py      :     0.005314
  6 H s       :     0.843577  s :     0.843577
      pz      :     0.005211  p :     0.022448
      px      :     0.005743
      py      :     0.011494
  7 H s       :     0.835729  s :     0.835729
      pz      :     0.009229  p :     0.020336
      px      :     0.006565
      py      :     0.004543
  8 H s       :     0.829500  s :     0.829500
      pz      :     0.005308  p :     0.023124
      px      :     0.010563
      py      :     0.007253
  9 H s       :     0.843335  s :     0.843335
      pz      :     0.005563  p :     0.023103
      px      :     0.005593
      py      :     0.011948


                     *******************************
                     * LOEWDIN POPULATION ANALYSIS *
                     *******************************

----------------------
LOEWDIN ATOMIC CHARGES
----------------------
   0 O :    0.089463
   1 C :   -0.337251
   2 C :   -0.274332
   3 C :   -0.277672
   4 H :    0.125202
   5 H :    0.129790
   6 H :    0.146833
   7 H :    0.142753
   8 H :    0.131887
   9 H :    0.123327

-------------------------------
LOEWDIN REDUCED ORBITAL CHARGES
-------------------------------
  0 O s       :     3.432351  s :     3.432351
      pz      :     1.656337  p :     4.408803
      px      :     1.371664
      py      :     1.380802
      dz2     :     0.008466  d :     0.064195
      dxz     :     0.010967
      dyz     :     0.010058
      dx2y2   :     0.011919
      dxy     :     0.022786
      f0      :     0.000661  f :     0.005188
      f+1     :     0.000571
      f-1     :     0.000567
      f+2     :     0.000058
      f-2     :     0.001146
      f+3     :     0.001106
      f-3     :     0.001078
  1 C s       :     2.784793  s :     2.784793
      pz      :     1.007584  p :     2.691316
      px      :     0.838544
      py      :     0.845188
      dz2     :     0.133289  d :     0.761087
      dxz     :     0.185210
      dyz     :     0.172802
      dx2y2   :     0.140966
      dxy     :     0.128819
      f0      :     0.020738  f :     0.100055
      f+1     :     0.009193
      f-1     :     0.012528
      f+2     :     0.006874
      f-2     :     0.021290
      f+3     :     0.015119
      f-3     :     0.014313
  2 C s       :     2.824169  s :     2.824169
      pz      :     1.055501  p :     3.193689
      px      :     1.075380
      py      :     1.062807
      dz2     :     0.082821  d :     0.233596
      dxz     :     0.028316
      dyz     :     0.044671
      dx2y2   :     0.053662
      dxy     :     0.024126
      f0      :     0.003404  f :     0.022878
      f+1     :     0.003354
      f-1     :     0.003600
      f+2     :     0.002756
      f-2     :     0.004317
      f+3     :     0.004003
      f-3     :     0.001444
  3 C s       :     2.831352  s :     2.831352
      pz      :     1.037336  p :     3.197611
      px      :     1.079410
      py      :     1.080865
      dz2     :     0.072126  d :     0.226127
      dxz     :     0.059390
      dyz     :     0.028820
      dx2y2   :     0.035393
      dxy     :     0.030398
      f0      :     0.003428  f :     0.022582
      f+1     :     0.004832
      f-1     :     0.004028
      f+2     :     0.003365
      f-2     :     0.002672
      f+3     :     0.000955
      f-3     :     0.003302
  4 H s       :     0.809188  s :     0.809188
      pz      :     0.035338  p :     0.065610
      px      :     0.016365
      py      :     0.013907
  5 H s       :     0.801488  s :     0.801488
      pz      :     0.015118  p :     0.068722
      px      :     0.037522
      py      :     0.016082
  6 H s       :     0.789107  s :     0.789107
      pz      :     0.016153  p :     0.064060
      px      :     0.017069
      py      :     0.030838
  7 H s       :     0.800255  s :     0.800255
      pz      :     0.024903  p :     0.056992
      px      :     0.019391
      py      :     0.012697
  8 H s       :     0.800392  s :     0.800392
      pz      :     0.015041  p :     0.067721
      px      :     0.031264
      py      :     0.021416
  9 H s       :     0.807104  s :     0.807104
      pz      :     0.015449  p :     0.069569
      px      :     0.017563
      py      :     0.036557


                      *****************************
                      * MAYER POPULATION ANALYSIS *
                      *****************************

  NA   - Mulliken gross atomic population
  ZA   - Total nuclear charge
  QA   - Mulliken gross atomic charge
  VA   - Mayer's total valence
  BVA  - Mayer's bonded valence
  FA   - Mayer's free valence

  ATOM       NA         ZA         QA         VA         BVA        FA
  0 O      8.3199     8.0000    -0.3199     2.1323     2.1323    -0.0000
  1 C      5.7588     6.0000     0.2412     4.0773     4.0773    -0.0000
  2 C      6.3886     6.0000    -0.3886     3.8068     3.8068    -0.0000
  3 C      6.3886     6.0000    -0.3886     3.7818     3.7818    -0.0000
  4 H      0.8559     1.0000     0.1441     0.9874     0.9874    -0.0000
  5 H      0.8470     1.0000     0.1530     0.9598     0.9598     0.0000
  6 H      0.8660     1.0000     0.1340     0.9730     0.9730     0.0000
  7 H      0.8561     1.0000     0.1439     0.9824     0.9824    -0.0000
  8 H      0.8526     1.0000     0.1474     0.9740     0.9740    -0.0000
  9 H      0.8664     1.0000     0.1336     0.9642     0.9642    -0.0000

  Mayer bond orders larger than 0.100000
B(  0-O ,  1-C ) :   2.0942 B(  1-C ,  2-C ) :   0.9839 B(  1-C ,  3-C ) :   0.9646 
B(  2-C ,  4-H ) :   0.9608 B(  2-C ,  5-H ) :   0.9486 B(  2-C ,  6-H ) :   0.9428 
B(  3-C ,  7-H ) :   0.9583 B(  3-C ,  8-H ) :   0.9429 B(  3-C ,  9-H ) :   0.9561 


-------
TIMINGS
-------

Total SCF time: 0 days 0 hours 0 min 4 sec 

Total time                  ....       4.618 sec
Sum of individual times     ....       4.339 sec  ( 94.0%)

Fock matrix formation       ....       3.871 sec  ( 83.8%)
  XC integration            ....       0.301 sec  (  7.8% of F)
    Basis function eval.    ....       0.025 sec  (  8.4% of XC)
    Density eval.           ....       0.026 sec  (  8.7% of XC)
    XC-Functional eval.     ....       0.007 sec  (  2.2% of XC)
    XC-Potential eval.      ....       0.045 sec  ( 14.9% of XC)
Diagonalization             ....       0.040 sec  (  0.9%)
Density matrix formation    ....       0.010 sec  (  0.2%)
Population analysis         ....       0.023 sec  (  0.5%)
Initial guess               ....       0.116 sec  (  2.5%)
Orbital Transformation      ....       0.000 sec  (  0.0%)
Orbital Orthonormalization  ....       0.000 sec  (  0.0%)
DIIS solution               ....       0.016 sec  (  0.3%)
SOSCF solution              ....       0.022 sec  (  0.5%)
Grid generation             ....       0.242 sec  (  5.2%)

-------------------------   --------------------
FINAL SINGLE POINT ENERGY      -192.988805879308
-------------------------   --------------------



           ************************************************************
           *        Program running with 26 parallel MPI-processes    *
           *              working on a common directory               *
           ************************************************************
------------------------------------------------------------------------------
                         ORCA SCF GRADIENT CALCULATION
------------------------------------------------------------------------------

Gradient of the Kohn-Sham DFT energy:
Kohn-Sham wavefunction type      ... RKS
Hartree-Fock exchange scaling    ...    0.250
Number of operators              ...    1
Number of atoms                  ...   10
Basis set dimensions             ...  160
Integral neglect threshold       ... 2.5e-11
Integral primitive cutoff        ... 2.5e-12

Nuclear repulsion gradient       ... done
One Electron Gradient            ... done
Pre-screening matrix             ... done
Starting the two electron gradient:
Two electron gradient done
Exchange-correlation gradient    ... done

------------------
CARTESIAN GRADIENT
------------------

   1   O   :    0.042866736    0.045619294    0.008389804
   2   C   :   -0.015253084   -0.040995527   -0.006601802
   3   C   :   -0.020955932    0.000737804    0.001600026
   4   C   :   -0.043182020   -0.011050825    0.026934306
   5   H   :   -0.013918684   -0.007208961   -0.006022430
   6   H   :    0.023313807   -0.004277188    0.009923148
   7   H   :   -0.002511531    0.010267452   -0.003834895
   8   H   :    0.008062425   -0.007111505   -0.019828447
   9   H   :    0.010986140   -0.011605755   -0.005668197
  10   H   :    0.010592143    0.025625211   -0.004891514

Difference to translation invariance:
           :    0.0000000000    0.0000000000    0.0000000000

Norm of the cartesian gradient     ...    0.1084351983
RMS gradient                       ...    0.0197974680
MAX gradient                       ...    0.0456192938

-------
TIMINGS
-------

Total SCF gradient time            ...        1.408 sec

One electron gradient       ....       0.009 sec  (  0.6%)
Prescreening matrices       ....       0.027 sec  (  1.9%)
Two electron gradient       ....       1.058 sec  ( 75.2%)
XC gradient                 ....       0.126 sec  (  9.0%)
------------------------------------------------------------------------------
                         ORCA GEOMETRY RELAXATION STEP
------------------------------------------------------------------------------

Reading the OPT-File                    .... done
Getting information on internals        .... done
Copying old internal coords+grads       .... done
Making the new internal coordinates     .... (new redundants).... done
Validating the new internal coordinates .... (new redundants).... done
Calculating the B-matrix                .... done
Calculating the G,G- and P matrices     .... done
Transforming gradient to internals      .... done
Projecting the internal gradient        .... done
Number of atoms                         ....  10
Number of internal coordinates          ....  36
Current Energy                          ....  -192.988805879 Eh
Current gradient norm                   ....     0.108435198 Eh/bohr
Maximum allowed component of the step   ....  0.300
Current trust radius                    ....  0.300
Evaluating the initial hessian          ....  (Almloef) done
Projecting the Hessian                  .... done
Forming the augmented Hessian           .... done
Diagonalizing the augmented Hessian     .... done
Last element of RFO vector              ....  0.977327766
Lowest eigenvalues of augmented Hessian:
 -0.016177994  0.010975107  0.011566952  0.011978120  0.111448690
Length of the computed step             ....  0.216643794
The final length of the internal step   ....  0.216643794
Converting the step to cartesian space:
 Initial RMS(Int)=    0.0361072991
Transforming coordinates:
 Iter   0:  RMS(Cart)=    0.0566064043 RMS(Int)=    0.0360952926
 Iter   1:  RMS(Cart)=    0.0023805449 RMS(Int)=    0.0016933512
 Iter   2:  RMS(Cart)=    0.0001003267 RMS(Int)=    0.0000824512
 Iter   3:  RMS(Cart)=    0.0000082451 RMS(Int)=    0.0000067004
 Iter   4:  RMS(Cart)=    0.0000004121 RMS(Int)=    0.0000003702
 Iter   5:  RMS(Cart)=    0.0000000318 RMS(Int)=    0.0000000255
done
Storing new coordinates                 .... done

                                .--------------------.
          ----------------------|Geometry convergence|-------------------------
          Item                value                   Tolerance       Converged
          ---------------------------------------------------------------------
          RMS gradient        0.0150727645            0.0001000000      NO
          MAX gradient        0.0631067479            0.0003000000      NO
          RMS step            0.0361072991            0.0020000000      NO
          MAX step            0.0669706139            0.0040000000      NO
          ........................................................
          Max(Bonds)      0.0342      Max(Angles)    3.54
          Max(Dihed)        3.84      Max(Improp)    0.00
          ---------------------------------------------------------------------

The optimization has not yet converged - more geometry cycles are needed


    ---------------------------------------------------------------------------
                         Redundant Internal Coordinates
                            (Angstroem and degrees)

        Definition                    Value    dE/dq     Step     New-Value
    ----------------------------------------------------------------------------
     1. B(C   1,O   0)                1.2430  0.063107 -0.0342    1.2088   
     2. B(C   2,C   1)                1.5104  0.006428 -0.0081    1.5022   
     3. B(C   3,C   1)                1.5229  0.009946 -0.0132    1.5097   
     4. B(H   4,C   2)                1.0743 -0.010660  0.0142    1.0884   
     5. B(H   5,C   2)                1.0623 -0.022287  0.0284    1.0907   
     6. B(H   6,C   2)                1.0850 -0.008628  0.0119    1.0970   
     7. B(H   7,C   3)                1.1279  0.019375 -0.0311    1.0968   
     8. B(H   8,C   3)                1.0703 -0.014259  0.0187    1.0890   
     9. B(H   9,C   3)                1.0568 -0.026653  0.0333    1.0901   
    10. A(O   0,C   1,C   3)          124.38  0.010045   -1.44    122.94   
    11. A(C   2,C   1,C   3)          109.89 -0.022210    3.13    113.02   
    12. A(O   0,C   1,C   2)          125.73  0.012168   -1.70    124.03   
    13. A(H   4,C   2,H   5)          104.27 -0.016204    2.47    106.74   
    14. A(C   1,C   2,H   5)          116.20  0.013481   -2.33    113.87   
    15. A(H   4,C   2,H   6)          109.75  0.001856   -0.36    109.38   
    16. A(C   1,C   2,H   4)          118.96  0.014093   -2.62    116.34   
    17. A(H   5,C   2,H   6)          104.78 -0.001494    0.80    105.58   
    18. A(C   1,C   2,H   6)          102.00 -0.013029    2.40    104.40   
    19. A(H   7,C   3,H   9)          101.19 -0.011802    3.54    104.73   
    20. A(C   1,C   3,H   9)          110.98  0.000731    0.26    111.24   
    21. A(H   7,C   3,H   8)          106.75 -0.006630    0.35    107.10   
    22. A(C   1,C   3,H   8)          116.29  0.011801   -2.63    113.66   
    23. A(H   8,C   3,H   9)          107.33 -0.004788    0.48    107.82   
    24. A(C   1,C   3,H   7)          113.07  0.006867   -1.10    111.97   
    25. D(H   6,C   2,C   1,O   0)   -113.91 -0.002235    2.06   -111.85   
    26. D(H   5,C   2,C   1,C   3)    -47.33  0.002736   -1.40    -48.73   
    27. D(H   4,C   2,C   1,O   0)      6.91 -0.001764    1.93      8.84   
    28. D(H   6,C   2,C   1,C   3)     65.96 -0.001254    0.02     65.99   
    29. D(H   5,C   2,C   1,O   0)    132.80  0.001754    0.63    133.43   
    30. D(H   4,C   2,C   1,C   3)   -173.22 -0.000783   -0.10   -173.32   
    31. D(H   7,C   3,C   1,O   0)     32.98  0.006406   -3.84     29.15   
    32. D(H   9,C   3,C   1,C   2)    -33.98 -0.004643    2.06    -31.92   
    33. D(H   9,C   3,C   1,O   0)    145.89 -0.003674    0.06    145.95   
    34. D(H   8,C   3,C   1,C   2)     89.07 -0.001350    0.88     89.95   
    35. D(H   8,C   3,C   1,O   0)    -91.06 -0.000381   -1.12    -92.18   
    36. D(H   7,C   3,C   1,C   2)   -146.89  0.005436   -1.83   -148.73   
    ----------------------------------------------------------------------------

         *************************************************************
         *                GEOMETRY OPTIMIZATION CYCLE   2            *
         *************************************************************
---------------------------------
CARTESIAN COORDINATES (ANGSTROEM)
---------------------------------
  O     -0.041751   -0.900659    0.071503
  C     -0.903525   -1.731419   -0.096654
  C     -1.398029   -2.658649    0.976826
  C     -1.558707   -1.975088   -1.434806
  H     -1.045732   -2.458522    1.987039
  H     -2.485040   -2.728832    1.032476
  H     -1.053938   -3.651107    0.660699
  H     -0.884819   -1.744243   -2.268837
  H     -2.466794   -1.393833   -1.588156
  H     -1.810665   -3.027648   -1.565091

----------------------------
CARTESIAN COORDINATES (A.U.)
----------------------------
  NO LB      ZA    FRAG     MASS         X           Y           Z
   0 O     8.0000    0    15.999   -0.078897   -1.702000    0.135121
   1 C     6.0000    0    12.011   -1.707415   -3.271908   -0.182650
   2 C     6.0000    0    12.011   -2.641891   -5.024118    1.845935
   3 C     6.0000    0    12.011   -2.945529   -3.732376   -2.711389
   4 H     1.0000    0     1.008   -1.976147   -4.645933    3.754959
   5 H     1.0000    0     1.008   -4.696046   -5.156745    1.951097
   6 H     1.0000    0     1.008   -1.991654   -6.899592    1.248539
   7 H     1.0000    0     1.008   -1.672066   -3.296142   -4.287480
   8 H     1.0000    0     1.008   -4.661564   -2.633962   -3.001179
   9 H     1.0000    0     1.008   -3.421661   -5.721425   -2.957593

--------------------------------
INTERNAL COORDINATES (ANGSTROEM)
--------------------------------
 O      0   0   0     0.000000000000     0.00000000     0.00000000
 C      1   0   0     1.208757369435     0.00000000     0.00000000
 C      2   1   0     1.502214479735   124.02102562     0.00000000
 C      2   1   3     1.509730643969   122.93107355   182.36709608
 H      3   2   1     1.088435507721   116.30854305     8.80923786
 H      3   2   1     1.090695550975   113.84407646   133.46355062
 H      3   2   1     1.096954282283   104.43299314   248.14389618
 H      4   2   1     1.096823607273   111.92453250    29.16917769
 H      4   2   1     1.089034179716   113.61141547   267.80130738
 H      4   2   1     1.090109568990   111.22777603   145.94309884

---------------------------
INTERNAL COORDINATES (A.U.)
---------------------------
 O      0   0   0     0.000000000000     0.00000000     0.00000000
 C      1   0   0     2.284220390591     0.00000000     0.00000000
 C      2   1   0     2.838773961110   124.02102562     0.00000000
 C      2   1   3     2.852977453091   122.93107355   182.36709608
 H      3   2   1     2.056845024028   116.30854305     8.80923786
 H      3   2   1     2.061115886829   113.84407646   133.46355062
 H      3   2   1     2.072943174948   104.43299314   248.14389618
 H      4   2   1     2.072696234965   111.92453250    29.16917769
 H      4   2   1     2.057976350142   113.61141547   267.80130738
 H      4   2   1     2.060008541358   111.22777603   145.94309884



           ************************************************************
           *        Program running with 26 parallel MPI-processes    *
           *              working on a common directory               *
           ************************************************************


           ************************************************************
           *        Program running with 26 parallel MPI-processes    *
           *              working on a common directory               *
           ************************************************************

Diagonalization of the overlap matrix:
Smallest eigenvalue                        ... 3.928e-04
Time for diagonalization                   ...    0.005 sec
Threshold for overlap eigenvalues          ... 1.000e-08
Number of eigenvalues below threshold      ... 0
Time for construction of square roots      ...    0.003 sec
Total time needed                          ...    0.008 sec

-------------------
DFT GRID GENERATION
-------------------

General Integration Accuracy     IntAcc      ...  4.340
Radial Grid Type                 RadialGrid  ... Gauss-Chebyshev
Angular Grid (max. acc.)         AngularGrid ... Lebedev-110
Angular grid pruning method      GridPruning ... 3 (G Style)
Weight generation scheme         WeightScheme... Becke
Basis function cutoff            BFCut       ...    1.0000e-11
Integration weight cutoff        WCut        ...    1.0000e-14
Grids for H and He will be reduced by one unit

# of grid points (after initial pruning)     ...  11448 (   0.0 sec)
# of grid points (after weights+screening)   ...  10894 (   0.0 sec)
nearest neighbour list constructed           ...    0.0 sec
Grid point re-assignment to atoms done       ...    0.0 sec
Grid point division into batches done        ...    0.0 sec
Reduced shell lists constructed in    0.0 sec

Total number of grid points                  ...    10894
Total number of batches                      ...      176
Average number of points per batch           ...       61
Average number of grid points per atom       ...     1089
Average number of shells per batch           ...    28.75 (42.28%)
Average number of basis functions per batch  ...    68.25 (42.66%)
Average number of large shells per batch     ...    21.62 (75.22%)
Average number of large basis fcns per batch ...    50.12 (73.44%)
Maximum spatial batch extension              ...  20.42, 15.48, 17.93 au
Average spatial batch extension              ...   0.50,  0.46,  0.45 au

Time for grid setup =    0.027 sec

--------------
SCF ITERATIONS
--------------
ITER       Energy         Delta-E        Max-DP      RMS-DP      [F,P]     Damp
               ***  Starting incremental Fock matrix formation  ***
  0   -192.9965249811   0.000000000000 0.00207965  0.00011928  0.0159883 0.7000
                      *** Initiating the SOSCF procedure ***
                      *** Re-Reading the Fockian *** 
                      *** Removing any level shift *** 
ITER      Energy       Delta-E        Grad      Rot      Max-DP    RMS-DP
  1   -192.99724483  -0.0007198462  0.001280  0.001280  0.009236  0.000373
               *** Restarting incremental Fock matrix formation ***
  2   -192.99901565  -0.0017708182  0.001509  0.002355  0.011105  0.000235
  3   -192.99904837  -0.0000327215  0.001364  0.001560  0.003534  0.000080
  4   -192.99909552  -0.0000471485  0.000483  0.001134  0.000850  0.000024
  5   -192.99909255   0.0000029617  0.000773  0.000698  0.000483  0.000014
  6   -192.99909713  -0.0000045717  0.000020  0.000023  0.000048  0.000002
  7   -192.99909714  -0.0000000113  0.000013  0.000009  0.000017  0.000001
                  ***Gradient check signals convergence***
              ***Rediagonalizing the Fockian in SOSCF/NRSCF***

               *****************************************************
               *                     SUCCESS                       *
               *           SCF CONVERGED AFTER   8 CYCLES          *
               *****************************************************

Setting up the final grid:

General Integration Accuracy     IntAcc      ...  4.670
Radial Grid Type                 RadialGrid  ... Gauss-Chebyshev
Angular Grid (max. acc.)         AngularGrid ... Lebedev-302
Angular grid pruning method      GridPruning ... 3 (G Style)
Weight generation scheme         WeightScheme... Becke
Basis function cutoff            BFCut       ...    1.0000e-11
Integration weight cutoff        WCut        ...    1.0000e-14
Grids for H and He will be reduced by one unit

# of grid points (after initial pruning)     ...  45212 (   0.0 sec)
# of grid points (after weights+screening)   ...  42599 (   0.0 sec)
nearest neighbour list constructed           ...    0.0 sec
Grid point re-assignment to atoms done       ...    0.0 sec
Grid point division into batches done        ...    0.2 sec
Reduced shell lists constructed in    0.2 sec

Total number of grid points                  ...    42599
Total number of batches                      ...      672
Average number of points per batch           ...       63
Average number of grid points per atom       ...     4260
Average number of shells per batch           ...    19.30 (28.38%)
Average number of basis functions per batch  ...    42.41 (26.50%)
Average number of large shells per batch     ...    13.19 (68.33%)
Average number of large basis fcns per batch ...    26.59 (62.71%)
Maximum spatial batch extension              ...  14.31, 17.88, 14.71 au
Average spatial batch extension              ...   0.32,  0.34,  0.31 au

Final grid set up in    0.2 sec
Final integration                            ... done (   0.1 sec)
Change in XC energy                          ...    -0.000303303
Integrated number of electrons               ...    32.000006524
Previous integrated no of electrons          ...    31.997067908
Total Energy       :         -192.99940045 Eh           -5251.78068 eV
  Last Energy change         ...   -8.6929e-09  Tolerance :   1.0000e-08
  Last MAX-Density change    ...    5.9097e-06  Tolerance :   1.0000e-07
             **** THE GBW FILE WAS UPDATED (acetoneOpt.gbw) ****
             **** DENSITY FILE WAS UPDATED (acetoneOpt.scfp) ****
             **** ENERGY FILE WAS UPDATED (acetoneOpt.en.tmp) ****
             **** THE GBW FILE WAS UPDATED (acetoneOpt.gbw) ****
             **** DENSITY FILE WAS UPDATED (acetoneOpt.scfp) ****
Total SCF time: 0 days 0 hours 0 min 3 sec 

-------------------------   --------------------
FINAL SINGLE POINT ENERGY      -192.999400448220
-------------------------   --------------------



           ************************************************************
           *        Program running with 26 parallel MPI-processes    *
           *              working on a common directory               *
           ************************************************************
------------------------------------------------------------------------------
                         ORCA SCF GRADIENT CALCULATION
------------------------------------------------------------------------------

Gradient of the Kohn-Sham DFT energy:
Kohn-Sham wavefunction type      ... RKS
Hartree-Fock exchange scaling    ...    0.250
Number of operators              ...    1
Number of atoms                  ...   10
Basis set dimensions             ...  160
Integral neglect threshold       ... 2.5e-11
Integral primitive cutoff        ... 2.5e-12

Nuclear repulsion gradient       ... done
One Electron Gradient            ... done
Pre-screening matrix             ... done
Starting the two electron gradient:
Two electron gradient done
Exchange-correlation gradient    ... done

------------------
CARTESIAN GRADIENT
------------------

   1   O   :    0.006381811    0.006391768    0.000684492
   2   C   :    0.002281923   -0.007699642   -0.001429249
   3   C   :   -0.001244584    0.007381271   -0.004932764
   4   C   :   -0.010009498    0.005065016    0.015724863
   5   H   :   -0.006439099   -0.004278226    0.002903451
   6   H   :    0.002531734   -0.002325579    0.005941102
   7   H   :    0.000697451    0.001530154   -0.004258475
   8   H   :   -0.000446470   -0.005335897   -0.005795288
   9   H   :    0.001838792   -0.002336861   -0.005136184
  10   H   :    0.004407940    0.001607995   -0.003701949

Difference to translation invariance:
           :    0.0000000000   -0.0000000000   -0.0000000000

Norm of the cartesian gradient     ...    0.0295217979
RMS gradient                       ...    0.0053899182
MAX gradient                       ...    0.0157248635

-------
TIMINGS
-------

Total SCF gradient time            ...        1.419 sec

One electron gradient       ....       0.009 sec  (  0.6%)
Prescreening matrices       ....       0.027 sec  (  1.9%)
Two electron gradient       ....       1.062 sec  ( 74.9%)
XC gradient                 ....       0.131 sec  (  9.2%)
------------------------------------------------------------------------------
                         ORCA GEOMETRY RELAXATION STEP
------------------------------------------------------------------------------

Reading the OPT-File                    .... done
Getting information on internals        .... done
Copying old internal coords+grads       .... done
Making the new internal coordinates     .... (new redundants).... done
Validating the new internal coordinates .... (new redundants).... done
Calculating the B-matrix                .... done
Calculating the G,G- and P matrices     .... done
Transforming gradient to internals      .... done
Projecting the internal gradient        .... done
Number of atoms                         ....  10
Number of internal coordinates          ....  36
Current Energy                          ....  -192.999400448 Eh
Current gradient norm                   ....     0.029521798 Eh/bohr
Maximum allowed component of the step   ....  0.300
Current trust radius                    ....  0.300
Updating the Hessian (BFGS)             .... done
Forming the augmented Hessian           .... done
Diagonalizing the augmented Hessian     .... done
Last element of RFO vector              ....  0.979654585
Lowest eigenvalues of augmented Hessian:
 -0.004327010  0.010993859  0.011897793  0.011982150  0.109569604
Length of the computed step             ....  0.204858985
The final length of the internal step   ....  0.204858985
Converting the step to cartesian space:
 Initial RMS(Int)=    0.0341431641
Transforming coordinates:
 Iter   0:  RMS(Cart)=    0.0629617497 RMS(Int)=    0.0342189304
 Iter   1:  RMS(Cart)=    0.0029538922 RMS(Int)=    0.0024199236
 Iter   2:  RMS(Cart)=    0.0001695324 RMS(Int)=    0.0001195964
 Iter   3:  RMS(Cart)=    0.0000173967 RMS(Int)=    0.0000150592
 Iter   4:  RMS(Cart)=    0.0000011450 RMS(Int)=    0.0000009531
 Iter   5:  RMS(Cart)=    0.0000001181 RMS(Int)=    0.0000000981
 Iter   6:  RMS(Cart)=    0.0000000082 RMS(Int)=    0.0000000074
done
Storing new coordinates                 .... done

                                .--------------------.
          ----------------------|Geometry convergence|-------------------------
          Item                value                   Tolerance       Converged
          ---------------------------------------------------------------------
          Energy change      -0.0105945689            0.0000050000      NO
          RMS gradient        0.0046871105            0.0001000000      NO
          MAX gradient        0.0103393099            0.0003000000      NO
          RMS step            0.0341431641            0.0020000000      NO
          MAX step            0.0925060924            0.0040000000      NO
          ........................................................
          Max(Bonds)      0.0116      Max(Angles)    3.70
          Max(Dihed)        5.30      Max(Improp)    0.00
          ---------------------------------------------------------------------

The optimization has not yet converged - more geometry cycles are needed


    ---------------------------------------------------------------------------
                         Redundant Internal Coordinates
                            (Angstroem and degrees)

        Definition                    Value    dE/dq     Step     New-Value
    ----------------------------------------------------------------------------
     1. B(C   1,O   0)                1.2088  0.009038 -0.0116    1.1971   
     2. B(C   2,C   1)                1.5022 -0.000205 -0.0006    1.5016   
     3. B(C   3,C   1)                1.5097  0.001020 -0.0036    1.5061   
     4. B(H   4,C   2)                1.0884 -0.000176  0.0021    1.0905   
     5. B(H   5,C   2)                1.0907 -0.002068  0.0073    1.0980   
     6. B(H   6,C   2)                1.0970  0.000059  0.0013    1.0983   
     7. B(H   7,C   3)                1.0968  0.003010 -0.0108    1.0860   
     8. B(H   8,C   3)                1.0890 -0.002059  0.0062    1.0953   
     9. B(H   9,C   3)                1.0901 -0.002128  0.0080    1.0981   
    10. A(O   0,C   1,C   3)          122.93  0.004471   -1.12    121.81   
    11. A(C   2,C   1,C   3)          113.01 -0.010332    2.52    115.53   
    12. A(O   0,C   1,C   2)          124.02  0.005839   -1.40    122.62   
    13. A(H   4,C   2,H   5)          106.68 -0.009308    2.37    109.05   
    14. A(C   1,C   2,H   5)          113.84  0.006769   -2.02    111.83   
    15. A(H   4,C   2,H   6)          109.41  0.000511   -0.20    109.21   
    16. A(C   1,C   2,H   4)          116.31  0.010339   -3.09    113.22   
    17. A(H   5,C   2,H   6)          105.61 -0.000218    0.63    106.24   
    18. A(C   1,C   2,H   6)          104.43 -0.008864    2.67    107.10   
    19. A(H   7,C   3,H   9)          104.73 -0.007245    3.70    108.44   
    20. A(C   1,C   3,H   9)          111.23 -0.000562    0.44    111.67   
    21. A(H   7,C   3,H   8)          107.03 -0.004592    0.67    107.71   
    22. A(C   1,C   3,H   8)          113.61  0.007615   -2.79    110.82   
    23. A(H   8,C   3,H   9)          107.81 -0.001695   -0.01    107.80   
    24. A(C   1,C   3,H   7)          111.92  0.004993   -1.20    110.72   
    25. D(H   6,C   2,C   1,O   0)   -111.86 -0.000796   -0.44   -112.30   
    26. D(H   5,C   2,C   1,C   3)    -48.69  0.000961    1.60    -47.09   
    27. D(H   4,C   2,C   1,O   0)      8.81 -0.000474   -0.46      8.35   
    28. D(H   6,C   2,C   1,C   3)     65.99 -0.001367    3.09     69.08   
    29. D(H   5,C   2,C   1,O   0)    133.46  0.001532   -1.93    131.53   
    30. D(H   4,C   2,C   1,C   3)   -173.35 -0.001045    3.08   -170.27   
    31. D(H   7,C   3,C   1,O   0)     29.17  0.003241   -1.83     27.34   
    32. D(H   9,C   3,C   1,C   2)    -31.93 -0.002487   -1.15    -33.08   
    33. D(H   9,C   3,C   1,O   0)    145.94 -0.003012    2.32    148.26   
    34. D(H   8,C   3,C   1,C   2)     89.93  0.000415   -2.94     86.99   
    35. D(H   8,C   3,C   1,O   0)    -92.20 -0.000110    0.53    -91.67   
    36. D(H   7,C   3,C   1,C   2)   -148.70  0.003766   -5.30   -154.00   
    ----------------------------------------------------------------------------

         *************************************************************
         *                GEOMETRY OPTIMIZATION CYCLE   3            *
         *************************************************************
---------------------------------
CARTESIAN COORDINATES (ANGSTROEM)
---------------------------------
  O     -0.070536   -0.936320    0.063626
  C     -0.902545   -1.778305   -0.115215
  C     -1.394727   -2.676348    0.983000
  C     -1.548959   -1.982947   -1.460112
  H     -1.028121   -2.388705    1.968927
  H     -2.491479   -2.721605    1.010839
  H     -1.049980   -3.692750    0.750016
  H     -0.880782   -1.670529   -2.257227
  H     -2.464399   -1.387546   -1.544352
  H     -1.817471   -3.034945   -1.624503

----------------------------
CARTESIAN COORDINATES (A.U.)
----------------------------
  NO LB      ZA    FRAG     MASS         X           Y           Z
   0 O     8.0000    0    15.999   -0.133294   -1.769388    0.120236
   1 C     6.0000    0    12.011   -1.705562   -3.360509   -0.217724
   2 C     6.0000    0    12.011   -2.635653   -5.057564    1.857600
   3 C     6.0000    0    12.011   -2.927108   -3.747227   -2.759212
   4 H     1.0000    0     1.008   -1.942867   -4.513997    3.720734
   5 H     1.0000    0     1.008   -4.708213   -5.143089    1.910208
   6 H     1.0000    0     1.008   -1.984175   -6.978287    1.417325
   7 H     1.0000    0     1.008   -1.664436   -3.156842   -4.265541
   8 H     1.0000    0     1.008   -4.657040   -2.622083   -2.918402
   9 H     1.0000    0     1.008   -3.434523   -5.735215   -3.069865

--------------------------------
INTERNAL COORDINATES (ANGSTROEM)
--------------------------------
 O      0   0   0     0.000000000000     0.00000000     0.00000000
 C      1   0   0     1.197147129716     0.00000000     0.00000000
 C      2   1   0     1.501599149485   122.62725970     0.00000000
 C      2   1   3     1.506146855194   121.81897777   178.55072881
 H      3   2   1     1.090501032642   113.15921957     8.27084649
 H      3   2   1     1.098038098433   111.75145177   131.62242766
 H      3   2   1     1.098274215650   107.18388607   247.71337828
 H      4   2   1     1.086028922659   110.62508255    27.40756654
 H      4   2   1     1.095275977017   110.70351038   268.29560147
 H      4   2   1     1.098099403634   111.64104550   148.25510879

---------------------------
INTERNAL COORDINATES (A.U.)
---------------------------
 O      0   0   0     0.000000000000     0.00000000     0.00000000
 C      1   0   0     2.262280217173     0.00000000     0.00000000
 C      2   1   0     2.837611155455   122.62725970     0.00000000
 C      2   1   3     2.846205073784   121.81897777   178.55072881
 H      3   2   1     2.060748300452   113.15921957     8.27084649
 H      3   2   1     2.074991290651   111.75145177   131.62242766
 H      3   2   1     2.075437487525   107.18388607   247.71337828
 H      4   2   1     2.052297237344   110.62508255    27.40756654
 H      4   2   1     2.069771637626   110.70351038   268.29560147
 H      4   2   1     2.075107140690   111.64104550   148.25510879



           ************************************************************
           *        Program running with 26 parallel MPI-processes    *
           *              working on a common directory               *
           ************************************************************


           ************************************************************
           *        Program running with 26 parallel MPI-processes    *
           *              working on a common directory               *
           ************************************************************

Diagonalization of the overlap matrix:
Smallest eigenvalue                        ... 3.691e-04
Time for diagonalization                   ...    0.005 sec
Threshold for overlap eigenvalues          ... 1.000e-08
Number of eigenvalues below threshold      ... 0
Time for construction of square roots      ...    0.003 sec
Total time needed                          ...    0.008 sec

-------------------
DFT GRID GENERATION
-------------------

General Integration Accuracy     IntAcc      ...  4.340
Radial Grid Type                 RadialGrid  ... Gauss-Chebyshev
Angular Grid (max. acc.)         AngularGrid ... Lebedev-110
Angular grid pruning method      GridPruning ... 3 (G Style)
Weight generation scheme         WeightScheme... Becke
Basis function cutoff            BFCut       ...    1.0000e-11
Integration weight cutoff        WCut        ...    1.0000e-14
Grids for H and He will be reduced by one unit

# of grid points (after initial pruning)     ...  11448 (   0.0 sec)
# of grid points (after weights+screening)   ...  10888 (   0.0 sec)
nearest neighbour list constructed           ...    0.0 sec
Grid point re-assignment to atoms done       ...    0.0 sec
Grid point division into batches done        ...    0.0 sec
Reduced shell lists constructed in    0.0 sec

Total number of grid points                  ...    10888
Total number of batches                      ...      177
Average number of points per batch           ...       61
Average number of grid points per atom       ...     1089
Average number of shells per batch           ...    29.12 (42.83%)
Average number of basis functions per batch  ...    68.88 (43.05%)
Average number of large shells per batch     ...    21.88 (75.11%)
Average number of large basis fcns per batch ...    50.38 (73.14%)
Maximum spatial batch extension              ...  20.42, 15.44, 17.99 au
Average spatial batch extension              ...   0.48,  0.45,  0.44 au

Time for grid setup =    0.027 sec

--------------
SCF ITERATIONS
--------------
ITER       Energy         Delta-E        Max-DP      RMS-DP      [F,P]     Damp
               ***  Starting incremental Fock matrix formation  ***
  0   -192.9991238007   0.000000000000 0.00246098  0.00010935  0.0237689 0.7000
                      *** Initiating the SOSCF procedure ***
                      *** Re-Reading the Fockian *** 
                      *** Removing any level shift *** 
ITER      Energy       Delta-E        Grad      Rot      Max-DP    RMS-DP
  1   -192.99981812  -0.0006943171  0.001697  0.001697  0.007852  0.000345
               *** Restarting incremental Fock matrix formation ***
  2   -193.00170488  -0.0018867655  0.001124  0.002438  0.004851  0.000124
  3   -193.00176137  -0.0000564899  0.000697  0.001241  0.001919  0.000050
  4   -193.00176148  -0.0000001093  0.000863  0.001042  0.001805  0.000039
  5   -193.00176800  -0.0000065133  0.000292  0.000420  0.001098  0.000022
  6   -193.00176814  -0.0000001436  0.000146  0.000132  0.000433  0.000010
  7   -193.00176887  -0.0000007310  0.000012  0.000023  0.000022  0.000001
  8   -193.00176887  -0.0000000028  0.000010  0.000010  0.000010  0.000000
                  ***Gradient check signals convergence***
              ***Rediagonalizing the Fockian in SOSCF/NRSCF***

               *****************************************************
               *                     SUCCESS                       *
               *           SCF CONVERGED AFTER   9 CYCLES          *
               *****************************************************

Setting up the final grid:

General Integration Accuracy     IntAcc      ...  4.670
Radial Grid Type                 RadialGrid  ... Gauss-Chebyshev
Angular Grid (max. acc.)         AngularGrid ... Lebedev-302
Angular grid pruning method      GridPruning ... 3 (G Style)
Weight generation scheme         WeightScheme... Becke
[...]
             **** DENSITY FILE WAS UPDATED (acetoneOpt.scfp) ****
             **** ENERGY FILE WAS UPDATED (acetoneOpt.en.tmp) ****
             **** THE GBW FILE WAS UPDATED (acetoneOpt.gbw) ****
             **** DENSITY FILE WAS UPDATED (acetoneOpt.scfp) ****
----------------
ORBITAL ENERGIES
----------------

  NO   OCC          E(Eh)            E(eV) 
   0   2.0000     -19.192426      -522.2525 
   1   2.0000     -10.313412      -280.6422 
   2   2.0000     -10.227049      -278.2921 
   3   2.0000     -10.226706      -278.2828 
   4   2.0000      -1.074768       -29.2459 
   5   2.0000      -0.797467       -21.7002 
   6   2.0000      -0.736102       -20.0303 
   7   2.0000      -0.552456       -15.0331 
   8   2.0000      -0.480853       -13.0847 
   9   2.0000      -0.479242       -13.0408 
  10   2.0000      -0.470983       -12.8161 
  11   2.0000      -0.418525       -11.3887 
  12   2.0000      -0.412583       -11.2269 
  13   2.0000      -0.394555       -10.7364 
  14   2.0000      -0.367555       -10.0017 
  15   2.0000      -0.265149        -7.2151 
  16   0.0000      -0.011489        -0.3126 
  17   0.0000       0.036355         0.9893 
  18   0.0000       0.090016         2.4495 
  19   0.0000       0.104837         2.8528 
  20   0.0000       0.108360         2.9486 
  21   0.0000       0.133642         3.6366 
  22   0.0000       0.137674         3.7463 
  23   0.0000       0.140952         3.8355 
  24   0.0000       0.171020         4.6537 
  25   0.0000       0.188835         5.1385 
  26   0.0000       0.211622         5.7585 
  27   0.0000       0.223549         6.0831 
  28   0.0000       0.227194         6.1823 
  29   0.0000       0.295482         8.0405 
  30   0.0000       0.304762         8.2930 
  31   0.0000       0.311829         8.4853 
  32   0.0000       0.376044        10.2327 
  33   0.0000       0.380347        10.3498 
  34   0.0000       0.412483        11.2242 
  35   0.0000       0.419546        11.4164 
  36   0.0000       0.438977        11.9452 
  37   0.0000       0.443355        12.0643 
  38   0.0000       0.453414        12.3380 
  39   0.0000       0.464003        12.6262 
  40   0.0000       0.465648        12.6709 
  41   0.0000       0.495790        13.4911 
  42   0.0000       0.564218        15.3532 
  43   0.0000       0.572622        15.5818 
  44   0.0000       0.588062        16.0020 
  45   0.0000       0.616893        16.7865 
  46   0.0000       0.664943        18.0940 
  47   0.0000       0.676999        18.4221 
  48   0.0000       0.737877        20.0786 
  49   0.0000       0.801076        21.7984 
  50   0.0000       0.824945        22.4479 
  51   0.0000       0.839984        22.8571 
  52   0.0000       0.907081        24.6829 
  53   0.0000       0.947286        25.7770 
  54   0.0000       0.977475        26.5985 
  55   0.0000       0.985270        26.8106 
  56   0.0000       1.002920        27.2909 
  57   0.0000       1.053743        28.6738 
  58   0.0000       1.112958        30.2851 
  59   0.0000       1.115556        30.3558 
  60   0.0000       1.139601        31.0101 
  61   0.0000       1.233886        33.5758 
  62   0.0000       1.398927        38.0667 
  63   0.0000       1.406395        38.2699 
  64   0.0000       1.449696        39.4482 
  65   0.0000       1.502486        40.8847 
  66   0.0000       1.509404        41.0730 
  67   0.0000       1.518858        41.3302 
  68   0.0000       1.531404        41.6716 
  69   0.0000       1.536676        41.8151 
  70   0.0000       1.564013        42.5590 
  71   0.0000       1.566679        42.6315 
  72   0.0000       1.584518        43.1169 
  73   0.0000       1.639420        44.6109 
  74   0.0000       1.657810        45.1113 
  75   0.0000       1.709233        46.5106 
  76   0.0000       1.854687        50.4686 
  77   0.0000       1.869290        50.8660 
  78   0.0000       1.880944        51.1831 
  79   0.0000       1.959965        53.3334 
  80   0.0000       2.014047        54.8050 
  81   0.0000       2.025171        55.1077 
  82   0.0000       2.046269        55.6818 
  83   0.0000       2.092465        56.9389 
  84   0.0000       2.118839        57.6565 
  85   0.0000       2.173608        59.1469 
  86   0.0000       2.174915        59.1824 
  87   0.0000       2.203683        59.9653 
  88   0.0000       2.216481        60.3135 
  89   0.0000       2.329813        63.3974 
  90   0.0000       2.350775        63.9678 
  91   0.0000       2.353375        64.0386 
  92   0.0000       2.395731        65.1912 
  93   0.0000       2.458886        66.9097 
  94   0.0000       2.481681        67.5300 
  95   0.0000       2.523359        68.6641 
  96   0.0000       2.528195        68.7957 
  97   0.0000       2.560493        69.6745 
  98   0.0000       2.562756        69.7361 
  99   0.0000       2.658310        72.3363 
 100   0.0000       2.706494        73.6474 
 101   0.0000       2.758488        75.0623 
 102   0.0000       2.787439        75.8501 
 103   0.0000       2.813764        76.5664 
 104   0.0000       2.850180        77.5573 
 105   0.0000       2.913702        79.2859 
 106   0.0000       2.975903        80.9784 
 107   0.0000       2.980928        81.1152 
 108   0.0000       3.013363        81.9978 
 109   0.0000       3.074661        83.6658 
 110   0.0000       3.081334        83.8474 
 111   0.0000       3.103418        84.4483 
 112   0.0000       3.111195        84.6599 
 113   0.0000       3.127225        85.0961 
 114   0.0000       3.146107        85.6099 
 115   0.0000       3.231639        87.9374 
 116   0.0000       3.292070        89.5818 
 117   0.0000       3.304365        89.9164 
 118   0.0000       3.316511        90.2468 
 119   0.0000       3.377511        91.9067 
 120   0.0000       3.385950        92.1364 
 121   0.0000       3.426672        93.2445 
 122   0.0000       3.455748        94.0357 
 123   0.0000       3.493734        95.0693 
 124   0.0000       3.530623        96.0731 
 125   0.0000       3.543660        96.4279 
 126   0.0000       3.679093       100.1132 
 127   0.0000       3.767136       102.5090 
 128   0.0000       3.865295       105.1800 
 129   0.0000       3.866798       105.2209 
 130   0.0000       3.902491       106.1922 
 131   0.0000       3.983818       108.4052 
 132   0.0000       3.988343       108.5283 
 133   0.0000       4.013076       109.2013 
 134   0.0000       4.069332       110.7321 
 135   0.0000       4.324897       117.6864 
 136   0.0000       4.367645       118.8497 
 137   0.0000       4.385757       119.3425 
 138   0.0000       4.406193       119.8986 
 139   0.0000       4.449326       121.0723 
 140   0.0000       4.533827       123.3717 
 141   0.0000       4.668262       127.0299 
 142   0.0000       4.774496       129.9206 
 143   0.0000       4.793118       130.4274 
 144   0.0000       5.210334       141.7804 
 145   0.0000       5.213945       141.8787 
 146   0.0000       5.622529       152.9968 
 147   0.0000       5.705620       155.2578 
 148   0.0000       6.171038       167.9225 
 149   0.0000       6.366760       173.2484 
 150   0.0000       6.408323       174.3793 
 151   0.0000       6.530937       177.7158 
 152   0.0000       6.556428       178.4095 
 153   0.0000       6.830095       185.8563 
 154   0.0000       7.014293       190.8686 
 155   0.0000       7.096250       193.0988 
 156   0.0000      22.390130       609.2664 
 157   0.0000      22.404383       609.6543 
 158   0.0000      23.059086       627.4696 
 159   0.0000      43.927370      1195.3245 

                    ********************************
                    * MULLIKEN POPULATION ANALYSIS *
                    ********************************

-----------------------
MULLIKEN ATOMIC CHARGES
-----------------------
   0 O :   -0.288431
   1 C :    0.176074
   2 C :   -0.362846
   3 C :   -0.339632
   4 H :    0.140493
   5 H :    0.138062
   6 H :    0.137542
   7 H :    0.139956
   8 H :    0.130861
   9 H :    0.127921
Sum of atomic charges:    0.0000000

--------------------------------
MULLIKEN REDUCED ORBITAL CHARGES
--------------------------------
  0 O s       :     3.809834  s :     3.809834
      pz      :     1.770579  p :     4.444695
      px      :     1.325440
      py      :     1.348676
      dz2     :     0.003291  d :     0.032054
      dxz     :     0.005233
      dyz     :     0.003994
      dx2y2   :     0.011662
      dxy     :     0.007874
      f0      :     0.000260  f :     0.001848
      f+1     :     0.000226
      f-1     :     0.000177
      f+2     :     0.000051
      f-2     :     0.000315
      f+3     :     0.000478
      f-3     :     0.000340
  1 C s       :     3.178482  s :     3.178482
      pz      :     0.919611  p :     2.409937
      px      :     0.747619
      py      :     0.742707
      dz2     :     0.036417  d :     0.217627
      dxz     :     0.059099
      dyz     :     0.047243
      dx2y2   :     0.051971
      dxy     :     0.022897
      f0      :     0.003661  f :     0.017881
      f+1     :     0.001747
      f-1     :     0.001994
      f+2     :     0.001321
      f-2     :     0.003664
      f+3     :     0.003131
      f-3     :     0.002363
  2 C s       :     3.198641  s :     3.198641
      pz      :     1.027270  p :     3.113477
      px      :     1.050542
      py      :     1.035665
      dz2     :     0.015447  d :     0.047568
      dxz     :     0.007182
      dyz     :     0.007788
      dx2y2   :     0.013558
      dxy     :     0.003594
      f0      :     0.000347  f :     0.003160
      f+1     :     0.000583
      f-1     :     0.000669
      f+2     :     0.000397
      f-2     :     0.000293
      f+3     :     0.000539
      f-3     :     0.000331
  3 C s       :     3.186280  s :     3.186280
      pz      :     0.988363  p :     3.104937
      px      :     1.057299
      py      :     1.059275
      dz2     :     0.013188  d :     0.045289
      dxz     :     0.008747
      dyz     :     0.009543
      dx2y2   :     0.010045
      dxy     :     0.003766
      f0      :     0.000611  f :     0.003127
      f+1     :     0.000758
      f-1     :     0.000376
      f+2     :     0.000347
      f-2     :     0.000430
      f+3     :     0.000085
      f-3     :     0.000520
  4 H s       :     0.837687  s :     0.837687
      pz      :     0.011166  p :     0.021820
      px      :     0.005856
      py      :     0.004799
  5 H s       :     0.840724  s :     0.840724
      pz      :     0.004487  p :     0.021214
      px      :     0.012086
      py      :     0.004642
  6 H s       :     0.841145  s :     0.841145
      pz      :     0.004515  p :     0.021313
      px      :     0.004799
      py      :     0.011999
  7 H s       :     0.838229  s :     0.838229
      pz      :     0.008612  p :     0.021814
      px      :     0.006334
      py      :     0.006868
  8 H s       :     0.847733  s :     0.847733
      pz      :     0.004493  p :     0.021406
      px      :     0.011623
      py      :     0.005290
  9 H s       :     0.850549  s :     0.850549
      pz      :     0.005210  p :     0.021530
      px      :     0.004634
      py      :     0.011686


                     *******************************
                     * LOEWDIN POPULATION ANALYSIS *
                     *******************************

----------------------
LOEWDIN ATOMIC CHARGES
----------------------
   0 O :    0.132471
   1 C :   -0.397579
   2 C :   -0.275307
   3 C :   -0.273720
   4 H :    0.133126
   5 H :    0.135489
   6 H :    0.139103
   7 H :    0.133152
   8 H :    0.138268
   9 H :    0.134996

-------------------------------
LOEWDIN REDUCED ORBITAL CHARGES
-------------------------------
  0 O s       :     3.398852  s :     3.398852
      pz      :     1.633907  p :     4.391841
      px      :     1.389080
      py      :     1.368854
      dz2     :     0.008960  d :     0.070656
      dxz     :     0.014952
      dyz     :     0.010105
      dx2y2   :     0.013559
      dxy     :     0.023080
      f0      :     0.000829  f :     0.006180
      f+1     :     0.000745
      f-1     :     0.000568
      f+2     :     0.000123
      f-2     :     0.001394
      f+3     :     0.001165
      f-3     :     0.001355
  1 C s       :     2.775515  s :     2.775515
      pz      :     1.011896  p :     2.713217
      px      :     0.867321
      py      :     0.834000
      dz2     :     0.147141  d :     0.796241
      dxz     :     0.211604
      dyz     :     0.166590
      dx2y2   :     0.140828
      dxy     :     0.130079
      f0      :     0.025188  f :     0.112605
      f+1     :     0.011110
      f-1     :     0.013611
      f+2     :     0.008107
      f-2     :     0.023007
      f+3     :     0.016919
      f-3     :     0.014663
  2 C s       :     2.836617  s :     2.836617
      pz      :     1.057621  p :     3.190013
      px      :     1.067063
      py      :     1.065329
      dz2     :     0.071884  d :     0.225569
      dxz     :     0.035516
      dyz     :     0.038715
      dx2y2   :     0.061811
      dxy     :     0.017643
      f0      :     0.002517  f :     0.023108
      f+1     :     0.004021
      f-1     :     0.004369
      f+2     :     0.002374
      f-2     :     0.004501
      f+3     :     0.003220
      f-3     :     0.002107
  3 C s       :     2.836441  s :     2.836441
      pz      :     1.050432  p :     3.188990
      px      :     1.070228
      py      :     1.068329
      dz2     :     0.065129  d :     0.225131
      dxz     :     0.047247
      dyz     :     0.047961
      dx2y2   :     0.046166
      dxy     :     0.018627
      f0      :     0.004439  f :     0.023158
      f+1     :     0.004787
      f-1     :     0.003372
      f+2     :     0.002197
      f-2     :     0.004238
      f+3     :     0.000998
      f-3     :     0.003127
  4 H s       :     0.804029  s :     0.804029
      pz      :     0.030851  p :     0.062845
      px      :     0.017308
      py      :     0.014686
  5 H s       :     0.801944  s :     0.801944
      pz      :     0.013036  p :     0.062566
      px      :     0.035510
      py      :     0.014021
  6 H s       :     0.798284  s :     0.798284
      pz      :     0.013982  p :     0.062613
      px      :     0.014734
      py      :     0.033898
  7 H s       :     0.803990  s :     0.803990
      pz      :     0.023678  p :     0.062858
      px      :     0.019256
      py      :     0.019924
  8 H s       :     0.799073  s :     0.799073
      pz      :     0.013275  p :     0.062659
      px      :     0.033296
      py      :     0.016088
  9 H s       :     0.802452  s :     0.802452
      pz      :     0.014288  p :     0.062552
      px      :     0.013926
      py      :     0.034338


                      *****************************
                      * MAYER POPULATION ANALYSIS *
                      *****************************

  NA   - Mulliken gross atomic population
  ZA   - Total nuclear charge
  QA   - Mulliken gross atomic charge
  VA   - Mayer's total valence
  BVA  - Mayer's bonded valence
  FA   - Mayer's free valence

  ATOM       NA         ZA         QA         VA         BVA        FA
  0 O      8.2884     8.0000    -0.2884     2.1615     2.1615    -0.0000
  1 C      5.8239     6.0000     0.1761     4.1535     4.1535    -0.0000
  2 C      6.3628     6.0000    -0.3628     3.7469     3.7469    -0.0000
  3 C      6.3396     6.0000    -0.3396     3.7408     3.7408    -0.0000
  4 H      0.8595     1.0000     0.1405     0.9983     0.9983     0.0000
  5 H      0.8619     1.0000     0.1381     0.9690     0.9690     0.0000
  6 H      0.8625     1.0000     0.1375     0.9731     0.9731     0.0000
  7 H      0.8600     1.0000     0.1400     0.9974     0.9974     0.0000
  8 H      0.8691     1.0000     0.1309     0.9766     0.9766    -0.0000
  9 H      0.8721     1.0000     0.1279     0.9728     0.9728    -0.0000

  Mayer bond orders larger than 0.100000
B(  0-O ,  1-C ) :   2.1427 B(  1-C ,  2-C ) :   0.9858 B(  1-C ,  3-C ) :   0.9839 
B(  2-C ,  4-H ) :   0.9655 B(  2-C ,  5-H ) :   0.9437 B(  2-C ,  6-H ) :   0.9420 
B(  3-C ,  7-H ) :   0.9659 B(  3-C ,  8-H ) :   0.9402 B(  3-C ,  9-H ) :   0.9432 


-------
TIMINGS
-------

Total SCF time: 0 days 0 hours 0 min 2 sec 

Total time                  ....       2.696 sec
Sum of individual times     ....       2.395 sec  ( 88.8%)

Fock matrix formation       ....       2.106 sec  ( 78.1%)
  XC integration            ....       0.192 sec  (  9.1% of F)
    Basis function eval.    ....       0.017 sec  (  9.0% of XC)
    Density eval.           ....       0.017 sec  (  9.0% of XC)
    XC-Functional eval.     ....       0.004 sec  (  2.3% of XC)
    XC-Potential eval.      ....       0.028 sec  ( 14.8% of XC)
Diagonalization             ....       0.005 sec  (  0.2%)
Density matrix formation    ....       0.006 sec  (  0.2%)
Population analysis         ....       0.007 sec  (  0.2%)
Initial guess               ....       0.012 sec  (  0.4%)
Orbital Transformation      ....       0.000 sec  (  0.0%)
Orbital Orthonormalization  ....       0.005 sec  (  0.2%)
DIIS solution               ....       0.001 sec  (  0.0%)
SOSCF solution              ....       0.018 sec  (  0.7%)
Grid generation             ....       0.240 sec  (  8.9%)

-------------------------   --------------------
FINAL SINGLE POINT ENERGY      -193.003001436819
-------------------------   --------------------

                                *** OPTIMIZATION RUN DONE ***

                            ***************************************
                            *     ORCA property calculations      *
                            ***************************************

                                    ---------------------
                                    Active property flags
                                    ---------------------
   (+) Dipole Moment


------------------------------------------------------------------------------
                       ORCA ELECTRIC PROPERTIES CALCULATION
------------------------------------------------------------------------------

Dipole Moment Calculation                       ... on
Quadrupole Moment Calculation                   ... off
Polarizability Calculation                      ... off
GBWName                                         ... acetoneOpt.gbw
Electron density file                           ... acetoneOpt.scfp
The origin for moment calculation is the CENTER OF MASS  = (-1.807189, -3.558568 -0.277312)

-------------
DIPOLE MOMENT
-------------
                                X             Y             Z
Electronic contribution:      2.94115       2.47790       0.54534
Nuclear contribution   :     -3.83286      -3.22679      -0.71067
                        -----------------------------------------
Total Dipole Moment    :     -0.89170      -0.74889      -0.16532
                        -----------------------------------------
Magnitude (a.u.)       :      1.17614
Magnitude (Debye)      :      2.98950



--------------------
Rotational spectrum 
--------------------
 
Rotational constants in cm-1:     0.341602     0.286936     0.165457 
Rotational constants in MHz : 10240.983520  8602.115057  4960.285896 

 Dipole components along the rotational axes: 
x,y,z [a.u.] :    -0.000524    -1.176137    -0.000165 
x,y,z [Debye]:    -0.001332    -2.989502    -0.000419 

 

Timings for individual modules:

Sum of individual times         ...       78.339 sec (=   1.306 min)
GTO integral calculation        ...        8.715 sec (=   0.145 min)  11.1 %
SCF iterations                  ...       48.252 sec (=   0.804 min)  61.6 %
SCF Gradient evaluation         ...       20.915 sec (=   0.349 min)  26.7 %
Geometry relaxation             ...        0.457 sec (=   0.008 min)   0.6 %
                             ****ORCA TERMINATED NORMALLY****
TOTAL RUN TIME: 0 days 0 hours 1 minutes 19 seconds 107 msec
