
                                 *****************
                                 * O   R   C   A *
                                 *****************

           --- An Ab Initio, DFT and Semiempirical electronic structure package ---

                  #######################################################
                  #                        -***-                        #
                  #          Department of theory and spectroscopy      #
                  #               Directorship: Frank Neese             #
                  #        Max Planck Institute fuer Kohlenforschung    #
                  #                Kaiser Wilhelm Platz 1               #
                  #                 D-45470 Muelheim/Ruhr               #
                  #                      Germany                        #
                  #                                                     #
                  #                  All rights reserved                #
                  #                        -***-                        #
                  #######################################################


                         Program Version 4.2.1 -  RELEASE  -


 With contributions from (in alphabetic order):
   Daniel Aravena         : Magnetic Suceptibility
   Michael Atanasov       : Ab Initio Ligand Field Theory (pilot matlab implementation)
   Alexander A. Auer      : GIAO ZORA, VPT2
   Ute Becker             : Parallelization
   Giovanni Bistoni       : ED, misc. LED, open-shell LED, HFLD
   Martin Brehm           : Molecular dynamics
   Dmytro Bykov           : SCF Hessian
   Vijay G. Chilkuri      : MRCI spin determinant printing, contributions to CSF-ICE
   Dipayan Datta          : RHF DLPNO-CCSD density
   Achintya Kumar Dutta   : EOM-CC, STEOM-CC
   Dmitry Ganyushin       : Spin-Orbit,Spin-Spin,Magnetic field MRCI
   Miquel Garcia          : C-PCM Hessian, Gaussian charge scheme
   Yang Guo               : DLPNO-NEVPT2, CIM, IAO-localization
   Andreas Hansen         : Spin unrestricted coupled pair/coupled cluster methods
   Benjamin Helmich-Paris : CASSCF linear response (MC-RPA)
   Lee Huntington         : MR-EOM, pCC
   Robert Izsak           : Overlap fitted RIJCOSX, COSX-SCS-MP3, EOM
   Christian Kollmar      : KDIIS, OOCD, Brueckner-CCSD(T), CCSD density
   Simone Kossmann        : Meta GGA functionals, TD-DFT gradient, OOMP2, MP2 Hessian
   Martin Krupicka        : AUTO-CI
   Lucas Lang             : DCDCAS
   Dagmar Lenk            : GEPOL surface, SMD
   Dimitrios Liakos       : Extrapolation schemes; Compound Job, initial MDCI parallelization
   Dimitrios Manganas     : Further ROCIS development; embedding schemes
   Dimitrios Pantazis     : SARC Basis sets
   Taras Petrenko         : DFT Hessian,TD-DFT gradient, ASA, ECA, R-Raman, ABS, FL, XAS/XES, NRVS
   Peter Pinski           : DLPNO-MP2, DLPNO-MP2 Gradient
   Christoph Reimann      : Effective Core Potentials
   Marius Retegan         : Local ZFS, SOC
   Christoph Riplinger    : Optimizer, TS searches, QM/MM, DLPNO-CCSD(T), (RO)-DLPNO pert. Triples
   Tobias Risthaus        : Range-separated hybrids, TD-DFT gradient, RPA, STAB
   Michael Roemelt        : Original ROCIS implementation
   Masaaki Saitow         : Open-shell DLPNO-CCSD energy and density
   Barbara Sandhoefer     : DKH picture change effects
   Avijit Sen             : IP-ROCIS
   Kantharuban Sivalingam : CASSCF convergence, NEVPT2, FIC-MRCI
   Bernardo de Souza      : ESD, SOC TD-DFT
   Georgi Stoychev        : AutoAux, RI-MP2 NMR
   Willem Van den Heuvel  : Paramagnetic NMR
   Boris Wezisla          : Elementary symmetry handling
   Frank Wennmohs         : Technical directorship


 We gratefully acknowledge several colleagues who have allowed us to
 interface, adapt or use parts of their codes:
   Stefan Grimme, W. Hujo, H. Kruse,             : VdW corrections, initial TS optimization,
                  C. Bannwarth                     DFT functionals, gCP, sTDA/sTD-DF
   Ed Valeev, F. Pavosevic, A. Kumar             : LibInt (2-el integral package), F12 methods
   Garnet Chan, S. Sharma, J. Yang, R. Olivares  : DMRG
   Ulf Ekstrom                                   : XCFun DFT Library
   Mihaly Kallay                                 : mrcc  (arbitrary order and MRCC methods)
   Andreas Klamt, Michael Diedenhofen            : otool_cosmo (COSMO solvation model)
   Jiri Pittner, Ondrej Demel                    : Mk-CCSD
   Frank Weinhold                                : gennbo (NPA and NBO analysis)
   Christopher J. Cramer and Donald G. Truhlar   : smd solvation model
   Lars Goerigk                                  : TD-DFT with DH, B97 family of functionals
   V. Asgeirsson, H. Jonsson                     : NEB implementation
   FAccTs GmbH                                   : IRC, NEB, NEB-TS, Multilevel, MM, QM/MM, CI optimization
   S Lehtola, MJT Oliveira, MAL Marques          : LibXC Library


 Your calculation uses the libint2 library for the computation of 2-el integrals
 For citations please refer to: http://libint.valeyev.net

 Your ORCA version has been built with support for libXC version: 4.2.3
 For citations please refer to: https://tddft.org/programs/libxc/

 This ORCA versions uses:
   CBLAS   interface :  Fast vector & matrix operations
   LAPACKE interface :  Fast linear algebra routines
   SCALAPACK package :  Parallel linear algebra routines



Reading of a custom basis requested
Basis file         : system.bas
READING GTO-BASIS: OXYGEN
READING GTO-BASIS: CARBON
READING GTO-BASIS: HYDROGEN
Basis successfully read

Reading of a custom AuxJ basis requested
Basis file: system.aux
READING GTO-BASIS: OXYGEN
READING GTO-BASIS: CARBON
READING GTO-BASIS: HYDROGEN
Basis read successfully!

----- Orbital basis set information -----
----- AuxJ basis set information -----
================================================================================
                                        WARNINGS
                       Please study these warnings very carefully!
================================================================================


INFO   : the flag for use of LIBINT has been found!

================================================================================
                                       INPUT FILE
================================================================================
NAME = temp.inp
|  1> * xyz  0 1
|  2>   O    0.026670    9.371025    2.499254
|  3>   C    0.915964    9.348536    1.685390
|  4>   C    0.980951   10.340790    0.553617
|  5>   C    2.020454    8.325549    1.744480
|  6>   H    0.214299   11.102803    0.679264
|  7>   H    1.969384   10.805619    0.499304
|  8>   H    0.823045    9.821551   -0.397095
|  9>   H    1.816593    7.600414    2.529778
| 10>   H    2.973057    8.823938    1.947578
| 11>   H    2.128959    7.818378    0.781781
| 12> * 
| 13> 
| 14> %pal
| 15> nprocs 26
| 16> end
| 17> 
| 18> %basis
| 19> GTOName ="system.bas";
| 20> GTOAuxName ="system.aux";
| 21> end
| 22>  
| 23> 
| 24> %pointcharges "background.crg"
| 25> ! DFT PBE0 TightSCF  
| 26> 
| 27> 
| 28>                          ****END OF INPUT****
================================================================================

                       ****************************
                       * Single Point Calculation *
                       ****************************

---------------------------------
CARTESIAN COORDINATES (ANGSTROEM)
---------------------------------
  O      0.026670    9.371025    2.499254
  C      0.915964    9.348536    1.685390
  C      0.980951   10.340790    0.553617
  C      2.020454    8.325549    1.744480
  H      0.214299   11.102803    0.679264
  H      1.969384   10.805619    0.499304
  H      0.823045    9.821551   -0.397095
  H      1.816593    7.600414    2.529778
  H      2.973057    8.823938    1.947578
  H      2.128959    7.818378    0.781781

----------------------------
CARTESIAN COORDINATES (A.U.)
----------------------------
  NO LB      ZA    FRAG     MASS         X           Y           Z
   0 O     8.0000    0    15.999    0.050399   17.708671    4.722906
   1 C     6.0000    0    12.011    1.730921   17.666173    3.184926
   2 C     6.0000    0    12.011    1.853729   19.541261    1.046185
   3 C     6.0000    0    12.011    3.818105   15.733008    3.296589
   4 H     1.0000    0     1.008    0.404966   20.981257    1.283623
   5 H     1.0000    0     1.008    3.721596   20.419661    0.943548
   6 H     1.0000    0     1.008    1.555330   18.560042   -0.750401
   7 H     1.0000    0     1.008    3.432863   14.362701    4.780588
   8 H     1.0000    0     1.008    5.618264   16.674826    3.680389
   9 H     1.0000    0     1.008    4.023149   14.774593    1.477352

--------------------------------
INTERNAL COORDINATES (ANGSTROEM)
--------------------------------
 O      0   0   0     0.000000000000     0.00000000     0.00000000
 C      1   0   0     1.205704849477     0.00000000     0.00000000
 C      2   1   0     1.506552831538   121.77751005     0.00000000
 C      2   1   3     1.506616139024   121.79620496   180.09350915
 H      3   2   1     1.088212419467   110.12498936     7.24839853
 H      3   2   1     1.093625025637   110.86913689   129.44073386
 H      3   2   1     1.094713090678   109.49936238   247.01700102
 H      4   2   1     1.088151195538   110.08659600     6.00347675
 H      4   2   1     1.094117392483   109.64917903   245.55770980
 H      4   2   1     1.093519603330   110.67885846   128.04341907

---------------------------
INTERNAL COORDINATES (A.U.)
---------------------------
 O      0   0   0     0.000000000000     0.00000000     0.00000000
 C      1   0   0     2.278451963853     0.00000000     0.00000000
 C      2   1   0     2.846972257890   121.77751005     0.00000000
 C      2   1   3     2.847091891702   121.79620496   180.09350915
 H      3   2   1     2.056423448324   110.12498936     7.24839853
 H      3   2   1     2.066651791656   110.86913689   129.44073386
 H      3   2   1     2.068707936599   109.49936238   247.01700102
 H      4   2   1     2.056307751865   110.08659600     6.00347675
 H      4   2   1     2.067582230153   109.64917903   245.55770980
 H      4   2   1     2.066452572368   110.67885846   128.04341907

---------------------
BASIS SET INFORMATION
---------------------
There are 3 groups of distinct atoms

 Group   1 Type O   : 11s6p2d1f contracted to 5s3p2d1f pattern {62111/411/11/1}
 Group   2 Type C   : 11s6p2d1f contracted to 5s3p2d1f pattern {62111/411/11/1}
 Group   3 Type H   : 5s1p contracted to 3s1p pattern {311/1}

Atom   0O    basis set group =>   1
Atom   1C    basis set group =>   2
Atom   2C    basis set group =>   2
Atom   3C    basis set group =>   2
Atom   4H    basis set group =>   3
Atom   5H    basis set group =>   3
Atom   6H    basis set group =>   3
Atom   7H    basis set group =>   3
Atom   8H    basis set group =>   3
Atom   9H    basis set group =>   3
---------------------------------
AUXILIARY/J BASIS SET INFORMATION
---------------------------------
There are 3 groups of distinct atoms

 Group   1 Type O   : 8s6p5d3f1g contracted to 8s6p4d3f1g pattern {11111111/111111/2111/111/1}
 Group   2 Type C   : 8s6p5d3f1g contracted to 8s6p4d3f1g pattern {11111111/111111/2111/111/1}
 Group   3 Type H   : 4s3p2d contracted to 4s2p1d pattern {1111/21/2}

Atom   0O    basis set group =>   1
Atom   1C    basis set group =>   2
Atom   2C    basis set group =>   2
Atom   3C    basis set group =>   2
Atom   4H    basis set group =>   3
Atom   5H    basis set group =>   3
Atom   6H    basis set group =>   3
Atom   7H    basis set group =>   3
Atom   8H    basis set group =>   3
Atom   9H    basis set group =>   3

Checking for AutoStart:
The File: temp.gbw exists
Trying to determine its content:
     ... Fine, the file contains calculation information
     ... Fine, the calculation information was read
     ... Fine, the file contains a basis set
     ... Fine, the basis set was read
     ... Fine, the file contains a geometry
     ... Fine, the geometry was read
     ... Fine, the file contains a set of orbitals
     ... Fine, the orbitals can be read
     => possible old guess file was deleted
     => GBW file was renamed to GES file
     => GES file is set as startup file
     => Guess is set to MORead
     ... now leaving AutoStart



           ************************************************************
           *        Program running with 26 parallel MPI-processes    *
           *              working on a common directory               *
           ************************************************************
------------------------------------------------------------------------------
                           ORCA GTO INTEGRAL CALCULATION
------------------------------------------------------------------------------

                         BASIS SET STATISTICS AND STARTUP INFO

 # of primitive gaussian shells          ...  116
 # of primitive gaussian functions       ...  232
 # of contracted shells                  ...   68
 # of contracted basis functions         ...  160
 Highest angular momentum                ...    3
 Maximum contraction depth               ...    6
 Integral package used                   ... LIBINT
 Integral threshhold            Thresh   ...  2.500e-11
 Primitive cut-off              TCut     ...  2.500e-12


------------------------------ INTEGRAL EVALUATION ----------------------------


 * One electron integrals 
 Pre-screening matrix                    ... done
 Shell pair data                         ... done (   0.001 sec)

ENUC WAS=  0.000000000


           ************************************************************
           *        Program running with 26 parallel MPI-processes    *
           *              working on a common directory               *
           ************************************************************
------------------------------------------------------------------------------
                            ORCA POINT-CHARGE CORRECTION
------------------------------------------------------------------------------

BaseName                           ... temp
Point charge file                  ... background.crg

Reading the GBW file               ... done
Reading the one-electron matrix    ... done
Reading the point charges          ... done
Number of point charges            ... 918
Reading the nuclear-repulsion      ... done
Charge-Nuclei interaction          ... done
The nuclear repulsion file was updated
Doing the point charge correction  ... done
Storing the one-electron matrix    ... done

ENUC IS = 120.359070538


           ************************************************************
           *        Program running with 26 parallel MPI-processes    *
           *              working on a common directory               *
           ************************************************************
-------------------------------------------------------------------------------
                                 ORCA SCF
-------------------------------------------------------------------------------

------------
SCF SETTINGS
------------
Hamiltonian:
 Density Functional     Method          .... DFT(GTOs)
 Exchange Functional    Exchange        .... PBE
   PBE kappa parameter   XKappa         ....  0.804000
   PBE mue parameter    XMuePBE         ....  0.219520
 Correlation Functional Correlation     .... PBE
   PBE beta parameter  CBetaPBE         ....  0.066725
 LDA part of GGA corr.  LDAOpt          .... PW91-LDA
 Gradients option       PostSCFGGA      .... off
 Hybrid DFT is turned on
   Fraction HF Exchange ScalHFX         ....  0.250000
   Scaling of DF-GGA-X  ScalDFX         ....  0.750000
   Scaling of DF-GGA-C  ScalDFC         ....  1.000000
   Scaling of DF-LDA-C  ScalLDAC        ....  1.000000
   Perturbative correction              ....  0.000000
   Density functional embedding theory  .... OFF
   NL short-range parameter             ....  6.900000


General Settings:
 Integral files         IntName         .... temp
 Hartree-Fock type      HFTyp           .... RHF
 Total Charge           Charge          ....    0
 Multiplicity           Mult            ....    1
 Number of Electrons    NEL             ....   32
 Basis Dimension        Dim             ....  160
 Nuclear Repulsion      ENuc            ....    120.3590705384 Eh

Convergence Acceleration:
 DIIS                   CNVDIIS         .... on
   Start iteration      DIISMaxIt       ....    12
   Startup error        DIISStart       ....  0.200000
   # of expansion vecs  DIISMaxEq       ....     5
   Bias factor          DIISBfac        ....   1.050
   Max. coefficient     DIISMaxC        ....  10.000
 Newton-Raphson         CNVNR           .... off
 SOSCF                  CNVSOSCF        .... on
   Start iteration      SOSCFMaxIt      ....   150
   Startup grad/error   SOSCFStart      ....  0.003300
 Level Shifting         CNVShift        .... on
   Level shift para.    LevelShift      ....    0.2500
   Turn off err/grad.   ShiftErr        ....    0.0010
 Zerner damping         CNVZerner       .... off
 Static damping         CNVDamp         .... on
   Fraction old density DampFac         ....    0.7000
   Max. Damping (<1)    DampMax         ....    0.9800
   Min. Damping (>=0)   DampMin         ....    0.0000
   Turn off err/grad.   DampErr         ....    0.1000
 Fernandez-Rico         CNVRico         .... off

SCF Procedure:
 Maximum # iterations   MaxIter         ....   125
 SCF integral mode      SCFMode         .... Direct
   Integral package                     .... LIBINT
 Reset frequency        DirectResetFreq ....    20
 Integral Threshold     Thresh          ....  2.500e-11 Eh
 Primitive CutOff       TCut            ....  2.500e-12 Eh

Convergence Tolerance:
 Convergence Check Mode ConvCheckMode   .... Total+1el-Energy
 Convergence forced     ConvForced      .... 0
 Energy Change          TolE            ....  1.000e-08 Eh
 1-El. energy change                    ....  1.000e-05 Eh
 Orbital Gradient       TolG            ....  1.000e-05
 Orbital Rotation angle TolX            ....  1.000e-05
 DIIS Error             TolErr          ....  5.000e-07


Diagonalization of the overlap matrix:
Smallest eigenvalue                        ... 3.783e-04
Time for diagonalization                   ...    0.005 sec
Threshold for overlap eigenvalues          ... 1.000e-08
Number of eigenvalues below threshold      ... 0
Time for construction of square roots      ...    0.003 sec
Total time needed                          ...    0.008 sec

---------------------
INITIAL GUESS: MOREAD
---------------------
Guess MOs are being read from file: temp.ges
Input Geometry matches current geometry (good)
Input basis set matches current basis set (good)
MOs were renormalized
MOs were reorthogonalized (Cholesky)
                      ------------------
                      INITIAL GUESS DONE (   0.0 sec)
                      ------------------
-------------------
DFT GRID GENERATION
-------------------

General Integration Accuracy     IntAcc      ...  4.340
Radial Grid Type                 RadialGrid  ... Gauss-Chebyshev
Angular Grid (max. acc.)         AngularGrid ... Lebedev-110
Angular grid pruning method      GridPruning ... 3 (G Style)
Weight generation scheme         WeightScheme... Becke
Basis function cutoff            BFCut       ...    1.0000e-11
Integration weight cutoff        WCut        ...    1.0000e-14
Grids for H and He will be reduced by one unit

# of grid points (after initial pruning)     ...  11448 (   0.0 sec)
# of grid points (after weights+screening)   ...  10880 (   0.0 sec)
nearest neighbour list constructed           ...    0.0 sec
Grid point re-assignment to atoms done       ...    0.0 sec
Grid point division into batches done        ...    0.0 sec
Reduced shell lists constructed in    0.0 sec

Total number of grid points                  ...    10880
Total number of batches                      ...      175
Average number of points per batch           ...       62
Average number of grid points per atom       ...     1088
Average number of shells per batch           ...    29.12 (42.83%)
Average number of basis functions per batch  ...    67.12 (41.95%)
Average number of large shells per batch     ...    20.75 (71.24%)
Average number of large basis fcns per batch ...    46.50 (69.27%)
Maximum spatial batch extension              ...  16.69, 17.18, 16.35 au
Average spatial batch extension              ...   0.45,  0.49,  0.42 au

Time for grid setup =    0.023 sec

--------------
SCF ITERATIONS
--------------
ITER       Energy         Delta-E        Max-DP      RMS-DP      [F,P]     Damp
               ***  Starting incremental Fock matrix formation  ***
                      *** Initiating the SOSCF procedure ***
                      *** Re-Reading the Fockian *** 
                      *** Removing any level shift *** 
ITER      Energy       Delta-E        Grad      Rot      Max-DP    RMS-DP
  0   -193.02191517 -193.0219151658  0.000007  0.000007  0.000025  0.000001
               *** Restarting incremental Fock matrix formation ***
                 **** Energy Check signals convergence ****
              ***Rediagonalizing the Fockian in SOSCF/NRSCF***

               *****************************************************
               *                     SUCCESS                       *
               *           SCF CONVERGED AFTER   1 CYCLES          *
               *****************************************************

Setting up the final grid:

General Integration Accuracy     IntAcc      ...  4.670
Radial Grid Type                 RadialGrid  ... Gauss-Chebyshev
Angular Grid (max. acc.)         AngularGrid ... Lebedev-302
Angular grid pruning method      GridPruning ... 3 (G Style)
Weight generation scheme         WeightScheme... Becke
Basis function cutoff            BFCut       ...    1.0000e-11
Integration weight cutoff        WCut        ...    1.0000e-14
Grids for H and He will be reduced by one unit

# of grid points (after initial pruning)     ...  45212 (   0.0 sec)
# of grid points (after weights+screening)   ...  42649 (   0.0 sec)
nearest neighbour list constructed           ...    0.0 sec
Grid point re-assignment to atoms done       ...    0.0 sec
Grid point division into batches done        ...    0.2 sec
Reduced shell lists constructed in    0.2 sec

Total number of grid points                  ...    42649
Total number of batches                      ...      671
Average number of points per batch           ...       63
Average number of grid points per atom       ...     4265
Average number of shells per batch           ...    20.52 (30.17%)
Average number of basis functions per batch  ...    44.96 (28.10%)
Average number of large shells per batch     ...    13.89 (67.69%)
Average number of large basis fcns per batch ...    28.41 (63.18%)
Maximum spatial batch extension              ...  15.15, 15.30, 15.65 au
Average spatial batch extension              ...   0.29,  0.31,  0.30 au

Final grid set up in    0.2 sec
Final integration                            ... done (   0.0 sec)
Change in XC energy                          ...    -0.000148987
Integrated number of electrons               ...    31.999941881
Previous integrated no of electrons          ...    31.997808597

----------------
TOTAL SCF ENERGY
----------------

Total Energy       :         -193.02206415 Eh           -5252.39739 eV

Components:
Nuclear Repulsion  :          120.35907054 Eh            3275.13681 eV
Electronic Energy  :         -313.38113469 Eh           -8527.53421 eV
One Electron Energy:         -498.95061454 Eh          -13577.13647 eV
Two Electron Energy:          185.56947985 Eh            5049.60226 eV

Virial components:
Potential Energy   :         -385.14181163 Eh          -10480.24150 eV
Kinetic Energy     :          192.11974747 Eh            5227.84411 eV
Virial Ratio       :            2.00469664


DFT components:
N(Alpha)           :       15.999970940251 electrons
N(Beta)            :       15.999970940251 electrons
N(Total)           :       31.999941880501 electrons
E(X)               :      -19.371056964607 Eh       
E(C)               :       -1.042253787783 Eh       
E(XC)              :      -20.413310752391 Eh       
DFET-embed. en.    :        0.000000000000 Eh       

---------------
SCF CONVERGENCE
---------------

  Last Energy change         ...   -4.1200e-10  Tolerance :   1.0000e-08
  Last MAX-Density change    ...    5.3873e-06  Tolerance :   1.0000e-07
  Last RMS-Density change    ...    2.0810e-07  Tolerance :   5.0000e-09
  Last Orbital Gradient      ...    2.4242e-06  Tolerance :   1.0000e-05
  Last Orbital Rotation      ...    5.2755e-06  Tolerance :   1.0000e-05

             **** THE GBW FILE WAS UPDATED (temp.gbw) ****
             **** DENSITY FILE WAS UPDATED (temp.scfp) ****
             **** ENERGY FILE WAS UPDATED (temp.en.tmp) ****
             **** THE GBW FILE WAS UPDATED (temp.gbw) ****
             **** DENSITY FILE WAS UPDATED (temp.scfp) ****
----------------
ORBITAL ENERGIES
----------------

  NO   OCC          E(Eh)            E(eV) 
   0   2.0000     -19.215632      -522.8839 
   1   2.0000     -10.332763      -281.1688 
   2   2.0000     -10.234776      -278.5024 
   3   2.0000     -10.229298      -278.3533 
   4   2.0000      -1.098492       -29.8915 
   5   2.0000      -0.805698       -21.9242 
   6   2.0000      -0.741878       -20.1875 
   7   2.0000      -0.567014       -15.4292 
   8   2.0000      -0.493014       -13.4156 
   9   2.0000      -0.489178       -13.3112 
  10   2.0000      -0.488434       -13.2910 
  11   2.0000      -0.426009       -11.5923 
  12   2.0000      -0.422391       -11.4939 
  13   2.0000      -0.399663       -10.8754 
  14   2.0000      -0.387091       -10.5333 
  15   2.0000      -0.286590        -7.7985 
  16   0.0000      -0.028917        -0.7869 
  17   0.0000       0.038800         1.0558 
  18   0.0000       0.088744         2.4148 
  19   0.0000       0.107284         2.9193 
  20   0.0000       0.112569         3.0631 
  21   0.0000       0.133020         3.6197 
  22   0.0000       0.137652         3.7457 
  23   0.0000       0.140814         3.8318 
  24   0.0000       0.155857         4.2411 
  25   0.0000       0.194079         5.2811 
  26   0.0000       0.202019         5.4972 
  27   0.0000       0.221298         6.0218 
  28   0.0000       0.227834         6.1997 
  29   0.0000       0.295653         8.0451 
  30   0.0000       0.301996         8.2177 
  31   0.0000       0.304811         8.2943 
  32   0.0000       0.364451         9.9172 
  33   0.0000       0.368894        10.0381 
  34   0.0000       0.401660        10.9297 
  35   0.0000       0.407987        11.1019 
  36   0.0000       0.415219        11.2987 
  37   0.0000       0.437727        11.9112 
  38   0.0000       0.442990        12.0544 
  39   0.0000       0.460192        12.5224 
  40   0.0000       0.471670        12.8348 
  41   0.0000       0.495781        13.4909 
  42   0.0000       0.530535        14.4366 
  43   0.0000       0.567139        15.4326 
  44   0.0000       0.579869        15.7790 
  45   0.0000       0.609857        16.5950 
  46   0.0000       0.657715        17.8973 
  47   0.0000       0.664966        18.0947 
  48   0.0000       0.714571        19.4445 
  49   0.0000       0.784140        21.3375 
  50   0.0000       0.819938        22.3116 
  51   0.0000       0.830247        22.5922 
  52   0.0000       0.901022        24.5181 
  53   0.0000       0.938127        25.5277 
  54   0.0000       0.974079        26.5060 
  55   0.0000       0.980525        26.6815 
  56   0.0000       0.997689        27.1485 
  57   0.0000       1.051979        28.6258 
  58   0.0000       1.103862        30.0376 
  59   0.0000       1.106870        30.1195 
  60   0.0000       1.130183        30.7538 
  61   0.0000       1.224675        33.3251 
  62   0.0000       1.375591        37.4317 
  63   0.0000       1.402395        38.1611 
  64   0.0000       1.438475        39.1429 
  65   0.0000       1.496054        40.7097 
  66   0.0000       1.502040        40.8726 
  67   0.0000       1.515769        41.2462 
  68   0.0000       1.519847        41.3571 
  69   0.0000       1.531410        41.6718 
  70   0.0000       1.557722        42.3878 
  71   0.0000       1.564150        42.5627 
  72   0.0000       1.580155        42.9982 
  73   0.0000       1.625656        44.2363 
  74   0.0000       1.647425        44.8287 
  75   0.0000       1.701448        46.2987 
  76   0.0000       1.841099        50.0989 
  77   0.0000       1.864606        50.7385 
  78   0.0000       1.871195        50.9178 
  79   0.0000       1.950999        53.0894 
  80   0.0000       1.994701        54.2786 
  81   0.0000       2.020626        54.9840 
  82   0.0000       2.037203        55.4351 
  83   0.0000       2.082915        56.6790 
  84   0.0000       2.110877        57.4399 
  85   0.0000       2.153464        58.5987 
  86   0.0000       2.163179        58.8631 
  87   0.0000       2.196244        59.7628 
  88   0.0000       2.207382        60.0659 
  89   0.0000       2.322624        63.2018 
  90   0.0000       2.344764        63.8043 
  91   0.0000       2.346119        63.8411 
  92   0.0000       2.390715        65.0547 
  93   0.0000       2.447518        66.6004 
  94   0.0000       2.464275        67.0563 
  95   0.0000       2.513593        68.3983 
  96   0.0000       2.524013        68.6819 
  97   0.0000       2.555407        69.5362 
  98   0.0000       2.558106        69.6096 
  99   0.0000       2.651313        72.1459 
 100   0.0000       2.695424        73.3462 
 101   0.0000       2.749361        74.8139 
 102   0.0000       2.782376        75.7123 
 103   0.0000       2.804854        76.3239 
 104   0.0000       2.843134        77.3656 
 105   0.0000       2.900613        78.9297 
 106   0.0000       2.964594        80.6707 
 107   0.0000       2.972563        80.8875 
 108   0.0000       2.993288        81.4515 
 109   0.0000       3.065147        83.4069 
 110   0.0000       3.068144        83.4884 
 111   0.0000       3.091096        84.1130 
 112   0.0000       3.104116        84.4673 
 113   0.0000       3.119647        84.8899 
 114   0.0000       3.136612        85.3515 
 115   0.0000       3.223199        87.7077 
 116   0.0000       3.283963        89.3612 
 117   0.0000       3.295845        89.6845 
 118   0.0000       3.308263        90.0224 
 119   0.0000       3.367110        91.6237 
 120   0.0000       3.377463        91.9054 
 121   0.0000       3.416268        92.9614 
 122   0.0000       3.445721        93.7628 
 123   0.0000       3.485453        94.8440 
 124   0.0000       3.519233        95.7632 
 125   0.0000       3.537388        96.2572 
 126   0.0000       3.669377        99.8488 
 127   0.0000       3.759962       102.3138 
 128   0.0000       3.854677       104.8911 
 129   0.0000       3.859287       105.0165 
 130   0.0000       3.894466       105.9738 
 131   0.0000       3.972951       108.1095 
 132   0.0000       3.979209       108.2798 
 133   0.0000       4.003135       108.9308 
 134   0.0000       4.058514       110.4378 
 135   0.0000       4.318746       117.5190 
 136   0.0000       4.360794       118.6632 
 137   0.0000       4.380241       119.1924 
 138   0.0000       4.396283       119.6289 
 139   0.0000       4.440022       120.8191 
 140   0.0000       4.521840       123.0455 
 141   0.0000       4.657999       126.7506 
 142   0.0000       4.765276       129.6698 
 143   0.0000       4.781838       130.1204 
 144   0.0000       5.182598       141.0257 
 145   0.0000       5.186643       141.1357 
 146   0.0000       5.595808       152.2697 
 147   0.0000       5.678537       154.5208 
 148   0.0000       6.146040       167.2422 
 149   0.0000       6.338521       172.4799 
 150   0.0000       6.382853       173.6863 
 151   0.0000       6.507318       177.0731 
 152   0.0000       6.534248       177.8059 
 153   0.0000       6.799998       185.0373 
 154   0.0000       6.985229       190.0777 
 155   0.0000       7.065482       192.2615 
 156   0.0000      22.384627       609.1167 
 157   0.0000      22.399648       609.5254 
 158   0.0000      23.041020       626.9780 
 159   0.0000      43.903578      1194.6771 

                    ********************************
                    * MULLIKEN POPULATION ANALYSIS *
                    ********************************

-----------------------
MULLIKEN ATOMIC CHARGES
-----------------------
   0 O :   -0.397870
   1 C :    0.240336
   2 C :   -0.316951
   3 C :   -0.342486
   4 H :    0.140858
   5 H :    0.149316
   6 H :    0.123976
   7 H :    0.150103
   8 H :    0.141867
   9 H :    0.110850
Sum of atomic charges:   -0.0000000

--------------------------------
MULLIKEN REDUCED ORBITAL CHARGES
--------------------------------
  0 O s       :     3.758771  s :     3.758771
      pz      :     1.477753  p :     4.606825
      px      :     1.466114
      py      :     1.662958
      dz2     :     0.008010  d :     0.030343
      dxz     :     0.007864
      dyz     :     0.004407
      dx2y2   :     0.004920
      dxy     :     0.005141
      f0      :     0.000248  f :     0.001930
      f+1     :     0.000525
      f-1     :     0.000085
      f+2     :     0.000358
      f-2     :     0.000358
      f+3     :     0.000159
      f-3     :     0.000198
  1 C s       :     3.160603  s :     3.160603
      pz      :     0.770759  p :     2.375888
      px      :     0.766367
      py      :     0.838763
      dz2     :     0.054538  d :     0.205066
      dxz     :     0.034052
      dyz     :     0.037768
      dx2y2   :     0.036386
      dxy     :     0.042321
      f0      :     0.002856  f :     0.018106
      f+1     :     0.003494
      f-1     :     0.001150
      f+2     :     0.002019
      f-2     :     0.004536
      f+3     :     0.001953
      f-3     :     0.002098
  2 C s       :     3.179918  s :     3.179918
      pz      :     1.007233  p :     3.089487
      px      :     1.074452
      py      :     1.007802
      dz2     :     0.010331  d :     0.044507
      dxz     :     0.004846
      dyz     :     0.011745
      dx2y2   :     0.007260
      dxy     :     0.010326
      f0      :     0.000338  f :     0.003038
      f+1     :     0.000265
      f-1     :     0.001006
      f+2     :     0.000293
      f-2     :     0.000450
      f+3     :     0.000213
      f-3     :     0.000474
  3 C s       :     3.201173  s :     3.201173
      pz      :     1.057373  p :     3.093618
      px      :     1.025305
      py      :     1.010940
      dz2     :     0.007449  d :     0.044606
      dxz     :     0.005321
      dyz     :     0.010375
      dx2y2   :     0.009935
      dxy     :     0.011526
      f0      :     0.000369  f :     0.003090
      f+1     :     0.000115
      f-1     :     0.000838
      f+2     :     0.000009
      f-2     :     0.000558
      f+3     :     0.000516
      f-3     :     0.000685
  4 H s       :     0.837413  s :     0.837413
      pz      :     0.004183  p :     0.021729
      px      :     0.008625
      py      :     0.008921
  5 H s       :     0.828873  s :     0.828873
      pz      :     0.004626  p :     0.021811
      px      :     0.011120
      py      :     0.006065
  6 H s       :     0.854132  s :     0.854132
      pz      :     0.010944  p :     0.021893
      px      :     0.004833
      py      :     0.006115
  7 H s       :     0.828359  s :     0.828359
      pz      :     0.008940  p :     0.021538
      px      :     0.004255
      py      :     0.008344
  8 H s       :     0.836013  s :     0.836013
      pz      :     0.004915  p :     0.022120
      px      :     0.011101
      py      :     0.006104
  9 H s       :     0.867866  s :     0.867866
      pz      :     0.010131  p :     0.021284
      px      :     0.004840
      py      :     0.006313


                     *******************************
                     * LOEWDIN POPULATION ANALYSIS *
                     *******************************

----------------------
LOEWDIN ATOMIC CHARGES
----------------------
   0 O :    0.066645
   1 C :   -0.377837
   2 C :   -0.260004
   3 C :   -0.262740
   4 H :    0.134481
   5 H :    0.142904
   6 H :    0.143035
   7 H :    0.135788
   8 H :    0.144119
   9 H :    0.133609

-------------------------------
LOEWDIN REDUCED ORBITAL CHARGES
-------------------------------
  0 O s       :     3.393136  s :     3.393136
      pz      :     1.466043  p :     4.466099
      px      :     1.471575
      py      :     1.528481
      dz2     :     0.013998  d :     0.067918
      dxz     :     0.022184
      dyz     :     0.009547
      dx2y2   :     0.010502
      dxy     :     0.011686
      f0      :     0.000678  f :     0.006202
      f+1     :     0.001681
      f-1     :     0.000210
      f+2     :     0.001426
      f-2     :     0.001168
      f+3     :     0.000464
      f-3     :     0.000574
  1 C s       :     2.777702  s :     2.777702
      pz      :     0.893311  p :     2.691406
      px      :     0.905163
      py      :     0.892931
      dz2     :     0.181519  d :     0.794576
      dxz     :     0.160160
      dyz     :     0.148309
      dx2y2   :     0.138460
      dxy     :     0.166129
      f0      :     0.017108  f :     0.114153
      f+1     :     0.022267
      f-1     :     0.007582
      f+2     :     0.013921
      f-2     :     0.027508
      f+3     :     0.011815
      f-3     :     0.013953
  2 C s       :     2.835328  s :     2.835328
      pz      :     1.054374  p :     3.181838
      px      :     1.073114
      py      :     1.054350
      dz2     :     0.057845  d :     0.219975
      dxz     :     0.018162
      dyz     :     0.059395
      dx2y2   :     0.025695
      dxy     :     0.058877
      f0      :     0.002350  f :     0.022863
      f+1     :     0.003909
      f-1     :     0.005116
      f+2     :     0.004279
      f-2     :     0.003024
      f+3     :     0.001431
      f-3     :     0.002754
  3 C s       :     2.835621  s :     2.835621
      pz      :     1.068246  p :     3.182892
      px      :     1.059329
      py      :     1.055316
      dz2     :     0.036593  d :     0.221300
      dxz     :     0.019451
      dyz     :     0.062389
      dx2y2   :     0.044225
      dxy     :     0.058642
      f0      :     0.002470  f :     0.022928
      f+1     :     0.002940
      f-1     :     0.003147
      f+2     :     0.002381
      f-2     :     0.003194
      f+3     :     0.003814
      f-3     :     0.004983
  4 H s       :     0.802680  s :     0.802680
      pz      :     0.012647  p :     0.062838
      px      :     0.025611
      py      :     0.024581
  5 H s       :     0.794123  s :     0.794123
      pz      :     0.013406  p :     0.062974
      px      :     0.032570
      py      :     0.016997
  6 H s       :     0.794458  s :     0.794458
      pz      :     0.029824  p :     0.062507
      px      :     0.014200
      py      :     0.018483
  7 H s       :     0.801222  s :     0.801222
      pz      :     0.026402  p :     0.062990
      px      :     0.013209
      py      :     0.023379
  8 H s       :     0.793072  s :     0.793072
      pz      :     0.014453  p :     0.062810
      px      :     0.030223
      py      :     0.018133
  9 H s       :     0.804343  s :     0.804343
      pz      :     0.030632  p :     0.062048
      px      :     0.013843
      py      :     0.017572


                      *****************************
                      * MAYER POPULATION ANALYSIS *
                      *****************************

  NA   - Mulliken gross atomic population
  ZA   - Total nuclear charge
  QA   - Mulliken gross atomic charge
  VA   - Mayer's total valence
  BVA  - Mayer's bonded valence
  FA   - Mayer's free valence

  ATOM       NA         ZA         QA         VA         BVA        FA
  0 O      8.3979     8.0000    -0.3979     2.0926     2.0926     0.0000
  1 C      5.7597     6.0000     0.2403     4.1106     4.1106    -0.0000
  2 C      6.3170     6.0000    -0.3170     3.7714     3.7714    -0.0000
  3 C      6.3425     6.0000    -0.3425     3.7722     3.7722    -0.0000
  4 H      0.8591     1.0000     0.1409     0.9925     0.9925    -0.0000
  5 H      0.8507     1.0000     0.1493     0.9704     0.9704     0.0000
  6 H      0.8760     1.0000     0.1240     0.9803     0.9803    -0.0000
  7 H      0.8499     1.0000     0.1501     0.9907     0.9907     0.0000
  8 H      0.8581     1.0000     0.1419     0.9818     0.9818     0.0000
  9 H      0.8891     1.0000     0.1109     0.9730     0.9730    -0.0000

  Mayer bond orders larger than 0.100000
B(  0-O ,  1-C ) :   2.0702 B(  1-C ,  2-C ) :   1.0068 B(  1-C ,  3-C ) :   0.9838 
B(  2-C ,  4-H ) :   0.9600 B(  2-C ,  5-H ) :   0.9440 B(  2-C ,  6-H ) :   0.9370 
B(  3-C ,  7-H ) :   0.9661 B(  3-C ,  8-H ) :   0.9437 B(  3-C ,  9-H ) :   0.9494 


-------
TIMINGS
-------

Total SCF time: 0 days 0 hours 0 min 1 sec 

Total time                  ....       1.161 sec
Sum of individual times     ....       0.920 sec  ( 79.2%)

Fock matrix formation       ....       0.654 sec  ( 56.4%)
  XC integration            ....       0.056 sec  (  8.6% of F)
    Basis function eval.    ....       0.009 sec  ( 15.5% of XC)
    Density eval.           ....       0.010 sec  ( 17.5% of XC)
    XC-Functional eval.     ....       0.002 sec  (  4.0% of XC)
    XC-Potential eval.      ....       0.017 sec  ( 31.0% of XC)
Diagonalization             ....       0.005 sec  (  0.5%)
Density matrix formation    ....       0.002 sec  (  0.1%)
Population analysis         ....       0.007 sec  (  0.6%)
Initial guess               ....       0.008 sec  (  0.7%)
Orbital Transformation      ....       0.000 sec  (  0.0%)
Orbital Orthonormalization  ....       0.005 sec  (  0.4%)
DIIS solution               ....       0.001 sec  (  0.1%)
SOSCF solution              ....       0.003 sec  (  0.3%)
Grid generation             ....       0.240 sec  ( 20.6%)

-------------------------   --------------------
FINAL SINGLE POINT ENERGY      -193.022064153032
-------------------------   --------------------


                            ***************************************
                            *     ORCA property calculations      *
                            ***************************************

                                    ---------------------
                                    Active property flags
                                    ---------------------
   (+) Dipole Moment


------------------------------------------------------------------------------
                       ORCA ELECTRIC PROPERTIES CALCULATION
------------------------------------------------------------------------------

Dipole Moment Calculation                       ... on
Quadrupole Moment Calculation                   ... off
Polarizability Calculation                      ... off
GBWName                                         ... temp.gbw
Electron density file                           ... temp.scfp
The origin for moment calculation is the CENTER OF MASS  = ( 1.870300, 17.661982  3.055843)

-------------
DIPOLE MOMENT
-------------
                                X             Y             Z
Electronic contribution:     -2.55989       0.09622       2.37476
Nuclear contribution   :      3.72628      -0.09834      -3.42245
                        -----------------------------------------
Total Dipole Moment    :      1.16639      -0.00212      -1.04769
                        -----------------------------------------
Magnitude (a.u.)       :      1.56784
Magnitude (Debye)      :      3.98514



--------------------
Rotational spectrum 
--------------------
 
Rotational constants in cm-1:     0.341603     0.286936     0.165457 
Rotational constants in MHz : 10240.986083  8602.115687  4960.286680 

 Dipole components along the rotational axes: 
x,y,z [a.u.] :     0.011461    -1.567529     0.029203 
x,y,z [Debye]:     0.029132    -3.984341     0.074228 

 

Timings for individual modules:

Sum of individual times         ...        2.610 sec (=   0.044 min)
GTO integral calculation        ...        0.890 sec (=   0.015 min)  34.1 %
SCF iterations                  ...        1.720 sec (=   0.029 min)  65.9 %
                             ****ORCA TERMINATED NORMALLY****
TOTAL RUN TIME: 0 days 0 hours 0 minutes 4 seconds 1 msec
