[Molden Format]
[Title]
 Molden file created by orca_2mkl for BaseName=temp

[Atoms] AU
O    1   8          0.0503989960        17.7086708441         4.7229055991 
C    2   6          1.7309211085        17.6661727931         3.1849255288 
C    3   6          1.8537287408        19.5412611084         1.0461845131 
C    4   6          3.8181047262        15.7330075245         3.2965894461 
H    5   1          0.4049664208        20.9812569889         1.2836229326 
H    6   1          3.7215964125        20.4196606175         0.9435478176 
H    7   1          1.5553296459        18.5600416003        -0.7504007991 
H    8   1          3.4328632668        14.3627009644         4.7805875996 
H    9   1          5.6182635105        16.6748262427         3.6803890445 
H   10   1          4.0231494603        14.7745932315         1.4773519867 
[GTO]
  1 0
s   6 1.0 
    27032.3800000000         0.8598581393
     4052.3870000000         1.6055304059
      922.3272000000         2.7458780898
      261.2407000000         4.2987677378
       85.3546400000         5.8797670930
       31.0350400000         6.3163984679
s   2 1.0 
       12.2608600000         2.9812145398
        4.9987080000         0.9419560379
s   1 1.0 
        1.1703110000         0.8019292557
s   1 1.0 
        0.4647474000         0.4011647998
s   1 1.0 
        0.1850454000         0.2010799703
p   4 1.0 
       63.2749500000         3.0572013698
       14.6270500000         3.3844845670
        4.4501220000         2.9474258212
        1.5275800000         1.7118271901
p   1 1.0 
        0.5293512000         0.6436058239
p   1 1.0 
        0.1747842000         0.1610897108
d   1 1.0 
        2.3140000000        12.3767310624
d   1 1.0 
        0.6450000000         1.3234257612
f   1 1.0 
        1.4280000000        12.7097950062

  2 0
s   6 1.0 
    13575.3500000000         0.5435905009
     2035.2330000000         1.0145543008
      463.2256000000         1.7315731015
      131.2002000000         2.6910371555
       42.8530200000         3.6044547316
       15.5841900000         3.7025565440
s   2 1.0 
        6.2067140000         1.8383540114
        2.5764900000         0.5447576606
s   1 1.0 
        0.5769634000         0.4718145074
s   1 1.0 
        0.2297283000         0.2364944571
s   1 1.0 
        0.0951644400         0.1221141848
p   4 1.0 
       34.6972300000         1.3596652360
        7.9582620000         1.4512590746
        2.3780830000         1.2709231872
        0.8143321000         0.8025721831
p   1 1.0 
        0.2888755000         0.3018759228
p   1 1.0 
        0.1005682000         0.0807264648
d   1 1.0 
        1.0970000000         3.3522135855
d   1 1.0 
        0.3180000000         0.3838994974
f   1 1.0 
        0.7610000000         3.0840084332

  3 0
s   6 1.0 
    13575.3500000000         0.5435905009
     2035.2330000000         1.0145543008
      463.2256000000         1.7315731015
      131.2002000000         2.6910371555
       42.8530200000         3.6044547316
       15.5841900000         3.7025565440
s   2 1.0 
        6.2067140000         1.8383540114
        2.5764900000         0.5447576606
s   1 1.0 
        0.5769634000         0.4718145074
s   1 1.0 
        0.2297283000         0.2364944571
s   1 1.0 
        0.0951644400         0.1221141848
p   4 1.0 
       34.6972300000         1.3596652360
        7.9582620000         1.4512590746
        2.3780830000         1.2709231872
        0.8143321000         0.8025721831
p   1 1.0 
        0.2888755000         0.3018759228
p   1 1.0 
        0.1005682000         0.0807264648
d   1 1.0 
        1.0970000000         3.3522135855
d   1 1.0 
        0.3180000000         0.3838994974
f   1 1.0 
        0.7610000000         3.0840084332

  4 0
s   6 1.0 
    13575.3500000000         0.5435905009
     2035.2330000000         1.0145543008
      463.2256000000         1.7315731015
      131.2002000000         2.6910371555
       42.8530200000         3.6044547316
       15.5841900000         3.7025565440
s   2 1.0 
        6.2067140000         1.8383540114
        2.5764900000         0.5447576606
s   1 1.0 
        0.5769634000         0.4718145074
s   1 1.0 
        0.2297283000         0.2364944571
s   1 1.0 
        0.0951644400         0.1221141848
p   4 1.0 
       34.6972300000         1.3596652360
        7.9582620000         1.4512590746
        2.3780830000         1.2709231872
        0.8143321000         0.8025721831
p   1 1.0 
        0.2888755000         0.3018759228
p   1 1.0 
        0.1005682000         0.0807264648
d   1 1.0 
        1.0970000000         3.3522135855
d   1 1.0 
        0.3180000000         0.3838994974
f   1 1.0 
        0.7610000000         3.0840084332

  5 0
s   3 1.0 
       34.0613400000         0.2556298765
        5.1235750000         0.4613598729
        1.1646630000         0.6811216893
s   1 1.0 
        0.3272304000         0.3083545241
s   1 1.0 
        0.1030724000         0.1296483171
p   1 1.0 
        0.8000000000         1.0784563492

  6 0
s   3 1.0 
       34.0613400000         0.2556298765
        5.1235750000         0.4613598729
        1.1646630000         0.6811216893
s   1 1.0 
        0.3272304000         0.3083545241
s   1 1.0 
        0.1030724000         0.1296483171
p   1 1.0 
        0.8000000000         1.0784563492

  7 0
s   3 1.0 
       34.0613400000         0.2556298765
        5.1235750000         0.4613598729
        1.1646630000         0.6811216893
s   1 1.0 
        0.3272304000         0.3083545241
s   1 1.0 
        0.1030724000         0.1296483171
p   1 1.0 
        0.8000000000         1.0784563492

  8 0
s   3 1.0 
       34.0613400000         0.2556298765
        5.1235750000         0.4613598729
        1.1646630000         0.6811216893
s   1 1.0 
        0.3272304000         0.3083545241
s   1 1.0 
        0.1030724000         0.1296483171
p   1 1.0 
        0.8000000000         1.0784563492

  9 0
s   3 1.0 
       34.0613400000         0.2556298765
        5.1235750000         0.4613598729
        1.1646630000         0.6811216893
s   1 1.0 
        0.3272304000         0.3083545241
s   1 1.0 
        0.1030724000         0.1296483171
p   1 1.0 
        0.8000000000         1.0784563492

 10 0
s   3 1.0 
       34.0613400000         0.2556298765
        5.1235750000         0.4613598729
        1.1646630000         0.6811216893
s   1 1.0 
        0.3272304000         0.3083545241
s   1 1.0 
        0.1030724000         0.1296483171
p   1 1.0 
        0.8000000000         1.0784563492

[5D]
[7F]
[9G]
[MO]
 Sym=     1a
 Ene= -1.92156317706335E+01
 Spin= Alpha
 Occup= 2.000000
  1      -0.435384875679
  2      -0.639605167921
  3      -0.034917812567
  4       0.028829613094
  5      -0.010132619255
  6      -0.001543631529
  7       0.000029778507
  8       0.001425424367
  9       0.004628887385
 10      -0.000109696639
 11      -0.004245385846
 12      -0.000371065611
 13       0.000009119662
 14       0.000344060361
 15      -0.000062638057
 16       0.000267360603
 17      -0.000052214081
 18      -0.000159531251
 19      -0.000034748766
 20       0.000288101685
 21      -0.001293416894
 22       0.000125073876
 23       0.000730885017
 24       0.000050537164
 25       0.000047079054
 26       0.000105562358
 27       0.000004055368
 28      -0.000128212231
 29       0.000005162288
 30      -0.000054615997
 31       0.000008354465
 32      -0.000043068723
 33       0.000258254959
 34      -0.000761901298
 35      -0.004316952246
 36       0.001414129408
 37       0.000480818968
 38      -0.000011161643
 39      -0.000438716380
 40       0.006281399593
 41      -0.000162925198
 42      -0.005753813793
 43      -0.003770726834
 44       0.000089356272
 45       0.003439369675
 46      -0.000070234445
 47       0.000314546027
 48       0.000027612387
 49      -0.000175124650
 50       0.000042265781
 51      -0.000916064400
 52       0.003995064116
 53      -0.000760885117
 54      -0.002339224466
 55      -0.000482635216
 56       0.000035233700
 57       0.000018049831
 58       0.000196025612
 59       0.000000435433
 60      -0.000021342882
 61       0.000040998885
 62       0.000149607178
 63      -0.000017562438
 64       0.000084460225
 65      -0.000352031252
 66      -0.001170969730
 67       0.001880125483
 68       0.000050482896
 69       0.000069255310
 70      -0.000177204094
 71      -0.000140902770
 72       0.000964602716
 73      -0.000298735349
 74       0.000673579953
 75      -0.000555411838
 76       0.000037363599
 77      -0.000027721360
 78       0.000054367857
 79       0.000088675535
 80      -0.000000871964
 81       0.000030498515
 82      -0.000629565650
 83      -0.000236413544
 84      -0.000038042314
 85       0.000200465355
 86      -0.001108133095
 87      -0.000074522506
 88      -0.000030071587
 89       0.000067392690
 90       0.000020117125
 91      -0.000063595580
 92       0.000089289380
 93       0.000020104655
 94      -0.000017606459
 95       0.000084663557
 96      -0.000350866478
 97      -0.001168200278
 98       0.001845009902
 99       0.000176257557
100      -0.000077449149
101      -0.000037014214
102       0.000275565908
103      -0.000936475129
104       0.000239632279
105       0.000042999282
106       0.000541107770
107      -0.000666422182
108       0.000020981267
109       0.000048877357
110       0.000036104077
111      -0.000024472682
112       0.000087569387
113       0.000487632924
114      -0.000368030632
115      -0.001095968203
116      -0.000384346990
117       0.000072515227
118       0.000038897799
119      -0.000058380389
120       0.000053073618
121       0.000093247110
122       0.000048430017
123      -0.000028282754
124       0.000066293903
125      -0.000128486201
126      -0.001064747974
127       0.000164982005
128      -0.000095606267
129       0.000185310336
130      -0.000020386646
131       0.000000009081
132       0.000495271566
133      -0.000361871298
134      -0.000134439705
135       0.000030872680
136       0.000131909230
137       0.000060471465
138       0.000890061243
139      -0.000413008112
140      -0.000073888164
141       0.000036952265
142       0.000197225632
143      -0.000129571820
144      -0.001073074915
145       0.000167301184
146       0.000010182561
147      -0.000179110001
148       0.000109402285
149       0.000055182285
150       0.000867084614
151      -0.000404328512
152      -0.000200885899
153      -0.000027875439
154       0.000067610817
155       0.000005012523
156       0.000547554195
157      -0.000355364204
158      -0.000143249663
159      -0.000013502015
160       0.000131436606
 Sym=     1a
 Ene= -1.03327625699642E+01
 Spin= Alpha
 Occup= 2.000000
  1      -0.000084799200
  2      -0.000357052408
  3       0.003629489336
  4      -0.014915985522
  5       0.000103621153
  6       0.000504609820
  7      -0.000013123533
  8      -0.000460808613
  9      -0.006398217987
 10       0.000165614141
 11       0.005848677854
 12      -0.000132239741
 13       0.000005331910
 14       0.000120300694
 15       0.000020021404
 16      -0.000004438519
 17       0.000108478533
 18       0.000041651691
 19       0.000096686817
 20      -0.000640646089
 21       0.002660008493
 22      -0.000506560678
 23      -0.001608955965
 24      -0.000318551406
 25      -0.000130163183
 26      -0.000338976979
 27       0.000096064130
 28       0.000429537307
 29      -0.000031586089
 30       0.000211085849
 31       0.000052175355
 32       0.467186373055
 33       0.608418702174
 34       0.038251766774
 35      -0.023394437910
 36       0.017940660446
 37      -0.000740592065
 38      -0.000000111103
 39       0.000720440964
 40      -0.010969623248
 41       0.000361374905
 42       0.009941511893
 43       0.004646695916
 44      -0.000124329635
 45      -0.004221265157
 46       0.000273306285
 47      -0.001733741044
 48      -0.000541195992
 49       0.000754191411
 50      -0.000579063118
 51       0.001660499002
 52      -0.005365784818
 53       0.003096775990
 54       0.003913465783
 55       0.002570063376
 56      -0.000448970910
 57      -0.001039836581
 58      -0.000062227139
 59       0.001274084047
 60      -0.000053142513
 61       0.000547548005
 62      -0.000113355495
 63       0.000582793034
 64       0.000866134769
 65      -0.000890987773
 66       0.008294104852
 67      -0.007699210188
 68       0.000081082516
 69      -0.000062830991
 70      -0.000010896294
 71      -0.001160955379
 72      -0.002576779286
 73       0.003858336018
 74      -0.000413196947
 75       0.001730862103
 76      -0.002054962624
 77      -0.000069626426
 78       0.000033903237
 79       0.000077527460
 80       0.000034778051
 81      -0.000039605065
 82       0.000646137648
 83      -0.000624610839
 84      -0.000213031660
 85       0.000105479158
 86       0.000633777589
 87       0.000022887362
 88      -0.000102149780
 89       0.000495212836
 90       0.000613167273
 91      -0.000065908148
 92      -0.000006685716
 93       0.000126371745
 94       0.000616780303
 95       0.000909692003
 96      -0.000909354922
 97       0.008461796412
 98      -0.007750857249
 99       0.000018839519
100       0.000058316170
101      -0.000081985505
102      -0.003941049448
103       0.002798906683
104       0.000748393000
105       0.001948026639
106      -0.001806329101
107       0.000567201047
108       0.000066668496
109       0.000016819806
110      -0.000031979515
111      -0.000038517510
112       0.000081559262
113      -0.000361939904
114      -0.000496523263
115       0.000637584703
116       0.000627836210
117      -0.000349918914
118      -0.000173824992
119      -0.000430530238
120       0.000249620004
121       0.000098017961
122      -0.000057888077
123       0.000439634095
124       0.000408808645
125       0.000005281493
126      -0.000241706881
127       0.000414639556
128       0.000100089279
129       0.000155070322
130      -0.000313838517
131       0.000023010792
132      -0.000464032700
133       0.000121634051
134      -0.000031408225
135       0.000121040708
136      -0.000214109504
137      -0.000034613739
138      -0.000494856028
139      -0.000390010947
140       0.000039659396
141       0.000191060146
142      -0.000155360256
143       0.000006602446
144      -0.000231445063
145       0.000431040509
146       0.000316692197
147      -0.000168535412
148      -0.000072636450
149      -0.000030721700
150      -0.000508742647
151      -0.000343674215
152       0.000158170508
153      -0.000199572302
154      -0.000021960096
155       0.000018662212
156      -0.000471148613
157       0.000072437426
158       0.000210068421
159      -0.000126232411
160       0.000051362987
 Sym=     1a
 Ene= -1.02347757091373E+01
 Spin= Alpha
 Occup= 2.000000
  1      -0.000004683918
  2       0.000054637577
  3      -0.000622527224
  4       0.002625718067
  5      -0.000739864284
  6      -0.000112791779
  7       0.000114678372
  8      -0.000006813889
  9       0.000990570195
 10      -0.000784892600
 11      -0.000131911532
 12       0.000083085984
 13       0.000426405461
 14      -0.000462153705
 15       0.000019816430
 16       0.000005559669
 17      -0.000036230473
 18      -0.000025073676
 19       0.000014179228
 20      -0.000177361772
 21      -0.000016790863
 22       0.000191115059
 23       0.000136037322
 24      -0.000190882858
 25      -0.000001846289
 26      -0.000016006576
 27       0.000042634303
 28       0.000058321181
 29      -0.000005791797
 30       0.000008298230
 31       0.000013984844
 32       0.000686685926
 33       0.000802810870
 34       0.000001950764
 35      -0.002703885899
 36       0.009413628240
 37      -0.000319081153
 38       0.000415602763
 39      -0.000158991191
 40       0.002818595094
 41      -0.003718184370
 42       0.001360881746
 43       0.002896470476
 44      -0.004966481151
 45       0.002806318936
 46      -0.000034870505
 47      -0.000077781474
 48      -0.000063586864
 49       0.000028863510
 50      -0.000130195905
 51      -0.002575551791
 52       0.001723531782
 53       0.001357973490
 54       0.000107320927
 55      -0.002939609180
 56      -0.000089245849
 57      -0.000377281766
 58       0.000347356640
 59      -0.000163066666
 60      -0.000102313718
 61       0.000490471895
 62       0.000585714816
 63       0.000424827286
 64       0.000545733090
 65      -0.000470238622
 66       0.003638886605
 67       0.004016269280
 68      -0.000070253046
 69       0.000087018989
 70      -0.000045024093
 71       0.000977238594
 72      -0.002715732680
 73       0.001874387434
 74       0.001053618493
 75      -0.002130821358
 76       0.000436448141
 77       0.000008244107
 78      -0.000037639135
 79      -0.000050262585
 80      -0.000018475840
 81      -0.000029563995
 82       0.000256890568
 83       0.000749233944
 84      -0.000950592456
 85      -0.000704713582
 86       0.000068189385
 87      -0.000043987017
 88       0.000015366443
 89      -0.000069396893
 90      -0.000070010026
 91      -0.000070670203
 92       0.000073306577
 93      -0.000040238326
 94      -0.467082280699
 95      -0.608678407253
 96      -0.034409651691
 97       0.014059856810
 98      -0.032600515254
 99       0.000176211630
100      -0.000319483421
101       0.000154087707
102       0.000524492382
103      -0.000434759076
104      -0.000153977639
105       0.001867862894
106      -0.003077425773
107       0.000825110767
108      -0.000011037222
109       0.000072127178
110       0.000047318175
111      -0.000005510109
112       0.000031623642
113       0.000094185730
114      -0.000125319624
115      -0.000512083675
116      -0.000180363083
117      -0.000126343898
118       0.000552624536
119       0.000125427296
120       0.001270661470
121       0.000102252451
122      -0.000490829918
123       0.000254927768
124       0.000869933882
125       0.000070867552
126       0.000840623486
127       0.001037663595
128       0.000086858344
129      -0.000149735688
130       0.000060224950
131      -0.000024364068
132      -0.000215431667
133      -0.000156076756
134       0.000026148893
135      -0.000040340597
136      -0.000091997502
137      -0.000031928153
138      -0.000419611690
139      -0.000779761522
140       0.000042583605
141       0.000019409330
142      -0.000075630806
143       0.000454598319
144       0.001838203412
145       0.003753419806
146       0.000385120655
147       0.001238757555
148      -0.001376316079
149       0.000432347187
150       0.002748772401
151       0.005337302426
152      -0.001774704707
153      -0.000841852868
154      -0.000335570594
155       0.000434954909
156       0.002623889011
157       0.004987271015
158      -0.000275699761
159       0.000924301654
160       0.001742282344
 Sym=     1a
 Ene= -1.02292976618201E+01
 Spin= Alpha
 Occup= 2.000000
  1       0.000004682942
  2      -0.000054634721
  3       0.000623054249
  4      -0.002623022184
  5       0.000706411779
  6       0.000008461851
  7       0.000112840543
  8      -0.000115513138
  9      -0.000250158977
 10      -0.000760029687
 11       0.000994478596
 12      -0.000441184575
 13       0.000436280385
 14       0.000060587553
 15       0.000031782678
 16      -0.000012036842
 17      -0.000009893461
 18      -0.000001859288
 19       0.000037259469
 20      -0.000213400901
 21       0.000067169782
 22       0.000168194834
 23       0.000068364164
 24      -0.000210929688
 25       0.000015355725
 26       0.000041236370
 27      -0.000026333402
 28      -0.000020319346
 29       0.000006021482
 30      -0.000039697841
 31      -0.000034387493
 32      -0.000654013889
 33      -0.000760249883
 34      -0.000012853447
 35       0.002807758531
 36      -0.009388956124
 37      -0.000117071238
 38       0.000409618207
 39      -0.000340913653
 40       0.000983943363
 41      -0.003622815861
 42       0.002970834173
 43       0.002353777158
 44      -0.004898799648
 45       0.003195061884
 46      -0.000035166631
 47       0.000087182330
 48       0.000128659544
 49       0.000010535148
 50       0.000054625381
 51      -0.001731659558
 52      -0.001186439314
 53       0.002816830054
 54       0.002120657712
 55      -0.001767215938
 56      -0.000134775748
 57      -0.000137779621
 58      -0.000691840867
 59      -0.000575833269
 60       0.000035580005
 61       0.000093641642
 62      -0.000189235660
 63       0.467082464394
 64       0.608678450985
 65       0.034428434590
 66      -0.014150723698
 67       0.032448138952
 68       0.000085239961
 69      -0.000349872680
 70       0.000223130991
 71      -0.000195873674
 72      -0.000357338844
 73       0.000452887095
 74       0.000506349460
 75      -0.003035421706
 76       0.001964218488
 77      -0.000009536237
 78      -0.000070925243
 79      -0.000038244645
 80       0.000011309278
 81      -0.000048927504
 82       0.000193565344
 83       0.000093134200
 84       0.000200456537
 85       0.000037996048
 86       0.000493248799
 87      -0.000233261756
 88      -0.000248196781
 89      -0.001203367253
 90       0.000009621502
 91      -0.000261150917
 92      -0.000639335689
 93      -0.000974150983
 94       0.000424400501
 95       0.000560813741
 96       0.000532434848
 97      -0.003668059452
 98      -0.003864889736
 99      -0.000038291622
100       0.000084007113
101      -0.000079041698
102       0.001721621134
103      -0.002708301146
104       0.001247245201
105       0.000286700789
106      -0.002063451671
107       0.001176785437
108       0.000023426908
109       0.000035470105
110       0.000033831001
111       0.000002582333
112       0.000048056835
113       0.000615008320
114      -0.000861658340
115       0.000062690949
116       0.000244999802
117       0.000921242019
118      -0.000074031317
119      -0.000015396080
120       0.000036555681
121      -0.000043553906
122      -0.000082894655
123       0.000074368260
124       0.000042155896
125      -0.000455729878
126      -0.001843546174
127      -0.003762121912
128      -0.001350429039
129       0.001303363671
130       0.000249003337
131      -0.000434652744
132      -0.002604006908
133      -0.004938542604
134       0.001784646667
135       0.000839441131
136      -0.000177092461
137      -0.000432460658
138      -0.002735542265
139      -0.005337233558
140      -0.000249488446
141      -0.000881005385
142      -0.001763953916
143      -0.000072659209
144      -0.000860285956
145      -0.001046439193
146       0.000049431386
147      -0.000149990305
148       0.000103870819
149       0.000029654495
150       0.000383420248
151       0.000760625624
152      -0.000069074068
153       0.000024831653
154       0.000043070967
155       0.000027692742
156       0.000249405993
157       0.000134800597
158      -0.000095862803
159      -0.000032597089
160       0.000023278384
 Sym=     1a
 Ene= -1.09849192873344E+00
 Spin= Alpha
 Occup= 2.000000
  1       0.088886948107
  2       0.209437482555
  3      -0.300887507425
  4      -0.395217885359
  5      -0.119531871486
  6      -0.085869105666
  7       0.001963869670
  8       0.078879177380
  9      -0.065264027872
 10       0.001290353806
 11       0.060212507218
 12      -0.003104526928
 13       0.000092402490
 14       0.003685200447
 15      -0.001344987033
 16       0.005773237409
 17      -0.000590111465
 18      -0.003356607451
 19      -0.000204486191
 20      -0.002587004252
 21       0.013019653826
 22      -0.002129921440
 23      -0.007443158258
 24      -0.001696966347
 25      -0.000633860337
 26      -0.001685665421
 27       0.000313316216
 28       0.002112745907
 29      -0.000134913673
 30       0.000972909597
 31       0.000060203475
 32       0.057192616046
 33       0.120442133201
 34      -0.185745626355
 35      -0.152914510264
 36      -0.018615714440
 37       0.099612212886
 38      -0.002468390264
 39      -0.091354926480
 40       0.028846190389
 41      -0.000898520191
 42      -0.026334335555
 43       0.002151894056
 44      -0.002331135226
 45      -0.000753606515
 46      -0.003496191619
 47       0.017183966058
 48       0.000432198681
 49      -0.009171170049
 50       0.001217606882
 51      -0.000758250607
 52       0.006236909145
 53       0.005039622475
 54      -0.001170789939
 55       0.004637078481
 56       0.001568164394
 57       0.004639165514
 58      -0.002487433205
 59      -0.006038577916
 60       0.000523625891
 61      -0.003222801818
 62      -0.001630328301
 63       0.008337301589
 64       0.017272436900
 65      -0.026419150891
 66      -0.013143634572
 67       0.009628892774
 68       0.004613713035
 69       0.008490027343
 70      -0.013508120927
 71       0.003139675941
 72       0.000078336857
 73      -0.002586443123
 74      -0.001292345629
 75      -0.001514465074
 76       0.001043416602
 77      -0.000710433236
 78       0.000787014276
 79       0.000711578486
 80       0.000019758029
 81      -0.000444903922
 82      -0.000359384303
 83       0.001126859673
 84      -0.000775283911
 85      -0.000918936100
 86      -0.000386618081
 87       0.000015150262
 88       0.000786439726
 89       0.000234055274
 90      -0.000403095378
 91      -0.000320459147
 92      -0.000037177349
 93      -0.000218355705
 94       0.008443762577
 95       0.017502168470
 96      -0.026630630139
 97      -0.014320174315
 98       0.004167617673
 99       0.013659762301
100      -0.009000471689
101      -0.003199475039
102       0.003356874845
103      -0.000815064560
104      -0.002864870067
105       0.000305682126
106       0.000570720513
107       0.000905880109
108       0.000494747112
109       0.000627801361
110      -0.000392701281
111      -0.000605434794
112       0.000811200701
113      -0.000249138419
114       0.001196438317
115      -0.000647531690
116      -0.000907701746
117      -0.000475250598
118       0.000504288226
119       0.000100527686
120      -0.000052964649
121      -0.000622192920
122       0.000370057331
123      -0.000264318648
124       0.000370094988
125      -0.004988509297
126      -0.004951467057
127      -0.002069098290
128      -0.000566180214
129       0.001070568528
130      -0.000350395675
131      -0.002715372427
132      -0.003411763000
133      -0.000237368391
134       0.000580931894
135       0.000480531386
136      -0.000426741130
137      -0.002990827703
138      -0.003617890974
139      -0.002144117926
140       0.000086889937
141       0.000200396193
142      -0.000975810969
143      -0.005092775788
144      -0.004972352849
145      -0.001800342326
146       0.000282857431
147      -0.001058286993
148       0.000654610564
149      -0.003053280550
150      -0.003401621614
151      -0.001590105300
152       0.000923276147
153      -0.000188178816
154      -0.000001517595
155      -0.002833332793
156      -0.003307783297
157      -0.000355092599
158       0.000497784807
159      -0.000531413978
160      -0.000495603545
 Sym=     1a
 Ene= -8.05697848794739E-01
 Spin= Alpha
 Occup= 2.000000
  1       0.030318523899
  2       0.072185618899
  3      -0.109962436091
  4      -0.136926002172
  5      -0.069154081783
  6       0.005055000374
  7      -0.001048147835
  8      -0.003346838036
  9       0.006961551248
 10      -0.001108587739
 11      -0.005145769088
 12       0.008322932632
 13      -0.000815634295
 14      -0.006315575377
 15      -0.000181147893
 16       0.000374884288
 17      -0.000282802802
 18      -0.000306194721
 19      -0.000269942180
 20       0.000044444233
 21      -0.000305932050
 22      -0.000506539272
 23       0.000120786081
 24      -0.000963547905
 25       0.000080654342
 26      -0.000030104355
 27       0.000173620253
 28       0.000013853024
 29       0.000005713099
 30       0.000024335975
 31       0.000124984901
 32      -0.044451837462
 33      -0.095006236857
 34       0.150744242350
 35       0.151119151421
 36       0.018959591883
 37       0.098503212649
 38      -0.005801998581
 39      -0.086461093480
 40       0.063449660448
 41      -0.003920088570
 42      -0.055496916416
 43       0.004140766321
 44       0.002634409066
 45      -0.006024712450
 46      -0.001873178458
 47       0.004539170042
 48      -0.004943922617
 49      -0.004137879285
 50      -0.004497302966
 51      -0.002734062255
 52       0.006374885909
 53      -0.005086670603
 54      -0.004716965067
 55      -0.005081788195
 56       0.000440148111
 57       0.000344972030
 58       0.002218264072
 59      -0.000229538973
 60      -0.000256292371
 61       0.000394292800
 62       0.001723818708
 63      -0.056435690611
 64      -0.120060581352
 65       0.179723334736
 66       0.210251078165
 67       0.011019652481
 68       0.011400656590
 69      -0.030897720395
 70       0.020998782521
 71       0.011407802714
 72      -0.028852360105
 73       0.018392049433
 74       0.002695899477
 75      -0.001148895373
 76       0.001265502639
 77       0.000479023903
 78       0.000707214806
 79      -0.003085632950
 80      -0.001649988326
 81      -0.000613186954
 82       0.001049652851
 83       0.003426210463
 84      -0.005797024379
 85      -0.004680713566
 86      -0.001632874562
 87      -0.000995493129
 88       0.000015118205
 89      -0.003011842232
 90      -0.001386434236
 91      -0.001110110639
 92      -0.000686434632
 93      -0.002243255298
 94      -0.061217879349
 95      -0.130275245762
 96       0.195276357595
 97       0.227465246144
 98       0.021574041104
 99      -0.018976171459
100       0.030929101310
101      -0.014365813402
102      -0.016208328672
103       0.028299404257
104      -0.013268749513
105      -0.003366435615
106       0.003980573562
107      -0.004030186164
108      -0.001453402488
109       0.000892853447
110      -0.000892447610
111      -0.000554651456
112      -0.002953911959
113      -0.003836682419
114       0.003733796583
115      -0.002487861173
116      -0.002161215828
117      -0.005406459062
118      -0.000240285879
119       0.000379852680
120      -0.003101964645