
                                 *****************
                                 * O   R   C   A *
                                 *****************

           --- An Ab Initio, DFT and Semiempirical electronic structure package ---

                  #######################################################
                  #                        -***-                        #
                  #          Department of theory and spectroscopy      #
                  #               Directorship: Frank Neese             #
                  #        Max Planck Institute fuer Kohlenforschung    #
                  #                Kaiser Wilhelm Platz 1               #
                  #                 D-45470 Muelheim/Ruhr               #
                  #                      Germany                        #
                  #                                                     #
                  #                  All rights reserved                #
                  #                        -***-                        #
                  #######################################################


                         Program Version 4.2.1 -  RELEASE  -


 With contributions from (in alphabetic order):
   Daniel Aravena         : Magnetic Suceptibility
   Michael Atanasov       : Ab Initio Ligand Field Theory (pilot matlab implementation)
   Alexander A. Auer      : GIAO ZORA, VPT2
   Ute Becker             : Parallelization
   Giovanni Bistoni       : ED, misc. LED, open-shell LED, HFLD
   Martin Brehm           : Molecular dynamics
   Dmytro Bykov           : SCF Hessian
   Vijay G. Chilkuri      : MRCI spin determinant printing, contributions to CSF-ICE
   Dipayan Datta          : RHF DLPNO-CCSD density
   Achintya Kumar Dutta   : EOM-CC, STEOM-CC
   Dmitry Ganyushin       : Spin-Orbit,Spin-Spin,Magnetic field MRCI
   Miquel Garcia          : C-PCM Hessian, Gaussian charge scheme
   Yang Guo               : DLPNO-NEVPT2, CIM, IAO-localization
   Andreas Hansen         : Spin unrestricted coupled pair/coupled cluster methods
   Benjamin Helmich-Paris : CASSCF linear response (MC-RPA)
   Lee Huntington         : MR-EOM, pCC
   Robert Izsak           : Overlap fitted RIJCOSX, COSX-SCS-MP3, EOM
   Christian Kollmar      : KDIIS, OOCD, Brueckner-CCSD(T), CCSD density
   Simone Kossmann        : Meta GGA functionals, TD-DFT gradient, OOMP2, MP2 Hessian
   Martin Krupicka        : AUTO-CI
   Lucas Lang             : DCDCAS
   Dagmar Lenk            : GEPOL surface, SMD
   Dimitrios Liakos       : Extrapolation schemes; Compound Job, initial MDCI parallelization
   Dimitrios Manganas     : Further ROCIS development; embedding schemes
   Dimitrios Pantazis     : SARC Basis sets
   Taras Petrenko         : DFT Hessian,TD-DFT gradient, ASA, ECA, R-Raman, ABS, FL, XAS/XES, NRVS
   Peter Pinski           : DLPNO-MP2, DLPNO-MP2 Gradient
   Christoph Reimann      : Effective Core Potentials
   Marius Retegan         : Local ZFS, SOC
   Christoph Riplinger    : Optimizer, TS searches, QM/MM, DLPNO-CCSD(T), (RO)-DLPNO pert. Triples
   Tobias Risthaus        : Range-separated hybrids, TD-DFT gradient, RPA, STAB
   Michael Roemelt        : Original ROCIS implementation
   Masaaki Saitow         : Open-shell DLPNO-CCSD energy and density
   Barbara Sandhoefer     : DKH picture change effects
   Avijit Sen             : IP-ROCIS
   Kantharuban Sivalingam : CASSCF convergence, NEVPT2, FIC-MRCI
   Bernardo de Souza      : ESD, SOC TD-DFT
   Georgi Stoychev        : AutoAux, RI-MP2 NMR
   Willem Van den Heuvel  : Paramagnetic NMR
   Boris Wezisla          : Elementary symmetry handling
   Frank Wennmohs         : Technical directorship


 We gratefully acknowledge several colleagues who have allowed us to
 interface, adapt or use parts of their codes:
   Stefan Grimme, W. Hujo, H. Kruse,             : VdW corrections, initial TS optimization,
                  C. Bannwarth                     DFT functionals, gCP, sTDA/sTD-DF
   Ed Valeev, F. Pavosevic, A. Kumar             : LibInt (2-el integral package), F12 methods
   Garnet Chan, S. Sharma, J. Yang, R. Olivares  : DMRG
   Ulf Ekstrom                                   : XCFun DFT Library
   Mihaly Kallay                                 : mrcc  (arbitrary order and MRCC methods)
   Andreas Klamt, Michael Diedenhofen            : otool_cosmo (COSMO solvation model)
   Jiri Pittner, Ondrej Demel                    : Mk-CCSD
   Frank Weinhold                                : gennbo (NPA and NBO analysis)
   Christopher J. Cramer and Donald G. Truhlar   : smd solvation model
   Lars Goerigk                                  : TD-DFT with DH, B97 family of functionals
   V. Asgeirsson, H. Jonsson                     : NEB implementation
   FAccTs GmbH                                   : IRC, NEB, NEB-TS, Multilevel, MM, QM/MM, CI optimization
   S Lehtola, MJT Oliveira, MAL Marques          : LibXC Library


 Your calculation uses the libint2 library for the computation of 2-el integrals
 For citations please refer to: http://libint.valeyev.net

 Your ORCA version has been built with support for libXC version: 4.2.3
 For citations please refer to: https://tddft.org/programs/libxc/

 This ORCA versions uses:
   CBLAS   interface :  Fast vector & matrix operations
   LAPACKE interface :  Fast linear algebra routines
   SCALAPACK package :  Parallel linear algebra routines




***************************************
The coordinates will be read from file: waterOpt.xyz
***************************************


----- Orbital basis set information -----
Your calculation utilizes the basis: def2-TZVP
   F. Weigend and R. Ahlrichs, Phys. Chem. Chem. Phys. 7, 3297 (2005).

================================================================================
                                        WARNINGS
                       Please study these warnings very carefully!
================================================================================


INFO   : the flag for use of LIBINT has been found!

================================================================================
                                       INPUT FILE
================================================================================
NAME = waterCHELPG.inp
|  1> !PBE0 def2-TZVP CHELPG
|  2> 
|  3> *xyzfile 0 1 waterOpt.xyz
|  4> 
|  5> %pal
|  6>  nprocs 26
|  7> end
|  8> 
|  9> %elprop
| 10> Polar 1
| 11> end
| 12> 
| 13> 
| 14>                          ****END OF INPUT****
================================================================================

                       ****************************
                       * Single Point Calculation *
                       ****************************

---------------------------------
CARTESIAN COORDINATES (ANGSTROEM)
---------------------------------
  O      0.000000    0.000000   -0.004332
  H      0.761461    0.000000    0.579525
  H     -0.761461    0.000000    0.579525

----------------------------
CARTESIAN COORDINATES (A.U.)
----------------------------
  NO LB      ZA    FRAG     MASS         X           Y           Z
   0 O     8.0000    0    15.999    0.000000    0.000000   -0.008187
   1 H     1.0000    0     1.008    1.438953    0.000000    1.095144
   2 H     1.0000    0     1.008   -1.438953    0.000000    1.095144

--------------------------------
INTERNAL COORDINATES (ANGSTROEM)
--------------------------------
 O      0   0   0     0.000000000000     0.00000000     0.00000000
 H      1   0   0     0.959537910815     0.00000000     0.00000000
 H      1   2   0     0.959537910845   105.04094473     0.00000000

---------------------------
INTERNAL COORDINATES (A.U.)
---------------------------
 O      0   0   0     0.000000000000     0.00000000     0.00000000
 H      1   0   0     1.813263866555     0.00000000     0.00000000
 H      1   2   0     1.813263866612   105.04094473     0.00000000

---------------------
BASIS SET INFORMATION
---------------------
There are 2 groups of distinct atoms

 Group   1 Type O   : 11s6p2d1f contracted to 5s3p2d1f pattern {62111/411/11/1}
 Group   2 Type H   : 5s1p contracted to 3s1p pattern {311/1}

Atom   0O    basis set group =>   1
Atom   1H    basis set group =>   2
Atom   2H    basis set group =>   2


           ************************************************************
           *        Program running with 26 parallel MPI-processes    *
           *              working on a common directory               *
           ************************************************************
------------------------------------------------------------------------------
                           ORCA GTO INTEGRAL CALCULATION
------------------------------------------------------------------------------

                         BASIS SET STATISTICS AND STARTUP INFO

 # of primitive gaussian shells          ...   32
 # of primitive gaussian functions       ...   62
 # of contracted shells                  ...   19
 # of contracted basis functions         ...   43
 Highest angular momentum                ...    3
 Maximum contraction depth               ...    6
 Integral package used                   ... LIBINT
 Integral threshhold            Thresh   ...  1.000e-10
 Primitive cut-off              TCut     ...  1.000e-11


------------------------------ INTEGRAL EVALUATION ----------------------------


 * One electron integrals 
 Pre-screening matrix                    ... done
 Shell pair data                         ... done (   0.000 sec)



           ************************************************************
           *        Program running with 26 parallel MPI-processes    *
           *              working on a common directory               *
           ************************************************************
-------------------------------------------------------------------------------
                                 ORCA SCF
-------------------------------------------------------------------------------

------------
SCF SETTINGS
------------
Hamiltonian:
 Density Functional     Method          .... DFT(GTOs)
 Exchange Functional    Exchange        .... PBE
   PBE kappa parameter   XKappa         ....  0.804000
   PBE mue parameter    XMuePBE         ....  0.219520
 Correlation Functional Correlation     .... PBE
   PBE beta parameter  CBetaPBE         ....  0.066725
 LDA part of GGA corr.  LDAOpt          .... PW91-LDA
 Gradients option       PostSCFGGA      .... off
 Hybrid DFT is turned on
   Fraction HF Exchange ScalHFX         ....  0.250000
   Scaling of DF-GGA-X  ScalDFX         ....  0.750000
   Scaling of DF-GGA-C  ScalDFC         ....  1.000000
   Scaling of DF-LDA-C  ScalLDAC        ....  1.000000
   Perturbative correction              ....  0.000000
   Density functional embedding theory  .... OFF
   NL short-range parameter             ....  6.900000


General Settings:
 Integral files         IntName         .... waterCHELPG
 Hartree-Fock type      HFTyp           .... RHF
 Total Charge           Charge          ....    0
 Multiplicity           Mult            ....    1
 Number of Electrons    NEL             ....   10
 Basis Dimension        Dim             ....   43
 Nuclear Repulsion      ENuc            ....      9.1713422447 Eh

Convergence Acceleration:
 DIIS                   CNVDIIS         .... on
   Start iteration      DIISMaxIt       ....    12
   Startup error        DIISStart       ....  0.200000
   # of expansion vecs  DIISMaxEq       ....     5
   Bias factor          DIISBfac        ....   1.050
   Max. coefficient     DIISMaxC        ....  10.000
 Newton-Raphson         CNVNR           .... off
 SOSCF                  CNVSOSCF        .... on
   Start iteration      SOSCFMaxIt      ....   150
   Startup grad/error   SOSCFStart      ....  0.003300
 Level Shifting         CNVShift        .... on
   Level shift para.    LevelShift      ....    0.2500
   Turn off err/grad.   ShiftErr        ....    0.0010
 Zerner damping         CNVZerner       .... off
 Static damping         CNVDamp         .... on
   Fraction old density DampFac         ....    0.7000
   Max. Damping (<1)    DampMax         ....    0.9800
   Min. Damping (>=0)   DampMin         ....    0.0000
   Turn off err/grad.   DampErr         ....    0.1000
 Fernandez-Rico         CNVRico         .... off

SCF Procedure:
 Maximum # iterations   MaxIter         ....   125
 SCF integral mode      SCFMode         .... Direct
   Integral package                     .... LIBINT
 Reset frequency        DirectResetFreq ....    20
 Integral Threshold     Thresh          ....  1.000e-10 Eh
 Primitive CutOff       TCut            ....  1.000e-11 Eh

Convergence Tolerance:
 Convergence Check Mode ConvCheckMode   .... Total+1el-Energy
 Convergence forced     ConvForced      .... 0
 Energy Change          TolE            ....  1.000e-06 Eh
 1-El. energy change                    ....  1.000e-03 Eh
 Orbital Gradient       TolG            ....  5.000e-05
 Orbital Rotation angle TolX            ....  5.000e-05
 DIIS Error             TolErr          ....  1.000e-06


Diagonalization of the overlap matrix:
Smallest eigenvalue                        ... 8.387e-03
Time for diagonalization                   ...    0.001 sec
Threshold for overlap eigenvalues          ... 1.000e-08
Number of eigenvalues below threshold      ... 0
Time for construction of square roots      ...    0.001 sec
Total time needed                          ...    0.002 sec

-------------------
DFT GRID GENERATION
-------------------

General Integration Accuracy     IntAcc      ...  4.340
Radial Grid Type                 RadialGrid  ... Gauss-Chebyshev
Angular Grid (max. acc.)         AngularGrid ... Lebedev-110
Angular grid pruning method      GridPruning ... 3 (G Style)
Weight generation scheme         WeightScheme... Becke
Basis function cutoff            BFCut       ...    1.0000e-10
Integration weight cutoff        WCut        ...    1.0000e-14
Grids for H and He will be reduced by one unit

# of grid points (after initial pruning)     ...   3304 (   0.0 sec)
# of grid points (after weights+screening)   ...   3260 (   0.0 sec)
nearest neighbour list constructed           ...    0.0 sec
Grid point re-assignment to atoms done       ...    0.0 sec
Grid point division into batches done        ...    0.0 sec
Reduced shell lists constructed in    0.0 sec

Total number of grid points                  ...     3260
Total number of batches                      ...       53
Average number of points per batch           ...       61
Average number of grid points per atom       ...     1087
Average number of shells per batch           ...    12.00 (63.16%)
Average number of basis functions per batch  ...    29.00 (67.44%)
Average number of large shells per batch     ...     9.75 (81.25%)
Average number of large basis fcns per batch ...    21.75 (75.00%)
Maximum spatial batch extension              ...  10.94, 15.11, 14.48 au
Average spatial batch extension              ...   0.59,  0.78,  0.78 au

Time for grid setup =    0.009 sec

------------------------------
INITIAL GUESS: MODEL POTENTIAL
------------------------------
Loading Hartree-Fock densities                     ... done
Calculating cut-offs                               ... done
Setting up the integral package                    ... done
Initializing the effective Hamiltonian             ... done
Starting the Coulomb interaction                   ... done (   0.0 sec)
Reading the grid                                   ... done
Mapping shells                                     ... done
Starting the XC term evaluation                    ... done (   0.0 sec)
  promolecular density results
     # of electrons  =      9.996395202
     EX              =     -8.730392675
     EC              =     -0.316262842
     EX+EC           =     -9.046655517
Transforming the Hamiltonian                       ... done (   0.0 sec)
Diagonalizing the Hamiltonian                      ... done (   0.0 sec)
Back transforming the eigenvectors                 ... done (   0.0 sec)
Now organizing SCF variables                       ... done
                      ------------------
                      INITIAL GUESS DONE (   0.1 sec)
                      ------------------
--------------
SCF ITERATIONS
--------------
ITER       Energy         Delta-E        Max-DP      RMS-DP      [F,P]     Damp
               ***  Starting incremental Fock matrix formation  ***
  0    -76.2829510235   0.000000000000 0.05477440  0.00364204  0.3282506 0.7000
  1    -76.3295522686  -0.046601245056 0.03313611  0.00219616  0.1374861 0.7000
                               ***Turning on DIIS***
  2    -76.3449774560  -0.015425187460 0.03099754  0.00258990  0.0328002 0.0000
  3    -76.3717286780  -0.026751221967 0.02372039  0.00141230  0.0821612 0.0000
  4    -76.3770742303  -0.005345552281 0.00494610  0.00031963  0.0118134 0.0000
                      *** Initiating the SOSCF procedure ***
                           *** Shutting down DIIS ***
                      *** Re-Reading the Fockian *** 
                      *** Removing any level shift *** 
ITER      Energy       Delta-E        Grad      Rot      Max-DP    RMS-DP
  5    -76.37721112  -0.0001368947  0.000546  0.000546  0.000911  0.000073
               *** Restarting incremental Fock matrix formation ***
  6    -76.37721445  -0.0000033298  0.000203  0.000468  0.000490  0.000036
  7    -76.37721470  -0.0000002441  0.000093  0.000105  0.000113  0.000011
                 **** Energy Check signals convergence ****
              ***Rediagonalizing the Fockian in SOSCF/NRSCF***

               *****************************************************
               *                     SUCCESS                       *
               *           SCF CONVERGED AFTER   8 CYCLES          *
               *****************************************************

Setting up the final grid:

General Integration Accuracy     IntAcc      ...  4.670
Radial Grid Type                 RadialGrid  ... Gauss-Chebyshev
Angular Grid (max. acc.)         AngularGrid ... Lebedev-302
Angular grid pruning method      GridPruning ... 3 (G Style)
Weight generation scheme         WeightScheme... Becke
Basis function cutoff            BFCut       ...    1.0000e-10
Integration weight cutoff        WCut        ...    1.0000e-14
Grids for H and He will be reduced by one unit

# of grid points (after initial pruning)     ...  13000 (   0.0 sec)
# of grid points (after weights+screening)   ...  12910 (   0.0 sec)
nearest neighbour list constructed           ...    0.0 sec
Grid point re-assignment to atoms done       ...    0.0 sec
Grid point division into batches done        ...    0.0 sec
Reduced shell lists constructed in    0.1 sec

Total number of grid points                  ...    12910
Total number of batches                      ...      203
Average number of points per batch           ...       63
Average number of grid points per atom       ...     4303
Average number of shells per batch           ...     4.33 (22.81%)
Average number of basis functions per batch  ...     7.44 (17.31%)
Average number of large shells per batch     ...     3.22 (74.36%)
Average number of large basis fcns per batch ...     5.00 (67.16%)
Maximum spatial batch extension              ...  16.88, 13.13, 11.55 au
Average spatial batch extension              ...   0.45,  0.41,  0.40 au

Final grid set up in    0.1 sec
Final integration                            ... done (   0.0 sec)
Change in XC energy                          ...    -0.000111346
Integrated number of electrons               ...     9.999995598
Previous integrated no of electrons          ...     9.997561420

----------------
TOTAL SCF ENERGY
----------------

Total Energy       :          -76.37732606 Eh           -2078.33270 eV

Components:
Nuclear Repulsion  :            9.17134224 Eh             249.56491 eV
Electronic Energy  :          -85.54866831 Eh           -2327.89761 eV
One Electron Energy:         -123.05867342 Eh           -3348.59674 eV
Two Electron Energy:           37.51000511 Eh            1020.69913 eV

Virial components:
Potential Energy   :         -152.49405812 Eh           -4149.57428 eV
Kinetic Energy     :           76.11673206 Eh            2071.24158 eV
Virial Ratio       :            2.00342361


DFT components:
N(Alpha)           :        4.999997798902 electrons
N(Beta)            :        4.999997798902 electrons
N(Total)           :        9.999995597803 electrons
E(X)               :       -6.697713362753 Eh       
E(C)               :       -0.327092499875 Eh       
E(XC)              :       -7.024805862629 Eh       
DFET-embed. en.    :        0.000000000000 Eh       

---------------
SCF CONVERGENCE
---------------

  Last Energy change         ...   -1.6931e-08  Tolerance :   1.0000e-06
  Last MAX-Density change    ...    8.3656e-05  Tolerance :   1.0000e-05
  Last RMS-Density change    ...    6.7081e-06  Tolerance :   1.0000e-06
  Last Orbital Gradient      ...    7.6558e-05  Tolerance :   5.0000e-05
  Last Orbital Rotation      ...    6.9469e-05  Tolerance :   5.0000e-05

             **** THE GBW FILE WAS UPDATED (waterCHELPG.gbw) ****
             **** DENSITY FILE WAS UPDATED (waterCHELPG.scfp) ****
             **** ENERGY FILE WAS UPDATED (waterCHELPG.en.tmp) ****
             **** THE GBW FILE WAS UPDATED (waterCHELPG.gbw) ****
             **** DENSITY FILE WAS UPDATED (waterCHELPG.scfp) ****
----------------
ORBITAL ENERGIES
----------------

  NO   OCC          E(Eh)            E(eV) 
   0   2.0000     -19.201202      -522.4913 
   1   2.0000      -1.038804       -28.2673 
   2   2.0000      -0.546715       -14.8769 
   3   2.0000      -0.402354       -10.9486 
   4   2.0000      -0.326531        -8.8854 
   5   0.0000       0.032066         0.8726 
   6   0.0000       0.105937         2.8827 
   7   0.0000       0.375652        10.2220 
   8   0.0000       0.425848        11.5879 
   9   0.0000       0.445491        12.1224 
  10   0.0000       0.455615        12.3979 
  11   0.0000       0.591939        16.1075 
  12   0.0000       0.614550        16.7227 
  13   0.0000       1.175717        31.9929 
  14   0.0000       1.196399        32.5557 
  15   0.0000       1.305404        35.5218 
  16   0.0000       1.537958        41.8500 
  17   0.0000       1.647613        44.8338 
  18   0.0000       1.764820        48.0232 
  19   0.0000       1.997724        54.3608 
  20   0.0000       2.070532        56.3420 
  21   0.0000       2.117923        57.6316 
  22   0.0000       2.298372        62.5419 
  23   0.0000       2.400131        65.3109 
  24   0.0000       2.609999        71.0217 
  25   0.0000       2.633211        71.6533 
  26   0.0000       2.640631        71.8552 
  27   0.0000       2.801287        76.2269 
  28   0.0000       3.656581        99.5006 
  29   0.0000       3.955857       107.6444 
  30   0.0000       5.116643       139.2309 
  31   0.0000       5.216426       141.9462 
  32   0.0000       5.395754       146.8259 
  33   0.0000       5.419781       147.4798 
  34   0.0000       5.484467       149.2399 
  35   0.0000       6.063414       164.9939 
  36   0.0000       6.247318       169.9982 
  37   0.0000       6.327036       172.1674 
  38   0.0000       6.393482       173.9755 
  39   0.0000       6.442697       175.3147 
  40   0.0000       6.935693       188.7298 
  41   0.0000       7.012781       190.8275 
  42   0.0000      43.349471      1179.5991 

                    ********************************
                    * MULLIKEN POPULATION ANALYSIS *
                    ********************************

-----------------------
MULLIKEN ATOMIC CHARGES
-----------------------
   0 O :   -0.641085
   1 H :    0.320542
   2 H :    0.320542
Sum of atomic charges:    0.0000000

--------------------------------
MULLIKEN REDUCED ORBITAL CHARGES
--------------------------------
  0 O s       :     3.807295  s :     3.807295
      pz      :     1.585584  p :     4.810443
      px      :     1.262509
      py      :     1.962350
      dz2     :     0.003175  d :     0.021986
      dxz     :     0.014178
      dyz     :     0.002617
      dx2y2   :     0.002016
      dxy     :     0.000000
      f0      :     0.000031  f :     0.001360
      f+1     :     0.000071
      f-1     :     0.000021
      f+2     :     0.000686
      f-2     :     0.000000
      f+3     :     0.000416
      f-3     :     0.000135
  1 H s       :     0.630735  s :     0.630735
      pz      :     0.014967  p :     0.048723
      px      :     0.016318
      py      :     0.017438
  2 H s       :     0.630735  s :     0.630735
      pz      :     0.014967  p :     0.048723
      px      :     0.016318
      py      :     0.017438


                     *******************************
                     * LOEWDIN POPULATION ANALYSIS *
                     *******************************

----------------------
LOEWDIN ATOMIC CHARGES
----------------------
   0 O :   -0.306922
   1 H :    0.153461
   2 H :    0.153461

-------------------------------
LOEWDIN REDUCED ORBITAL CHARGES
-------------------------------
  0 O s       :     3.459270  s :     3.459270
      pz      :     1.617059  p :     4.812565
      px      :     1.292964
      py      :     1.902542
      dz2     :     0.001466  d :     0.032639
      dxz     :     0.024966
      dyz     :     0.000929
      dx2y2   :     0.005278
      dxy     :     0.000000
      f0      :     0.000218  f :     0.002448
      f+1     :     0.000503
      f-1     :     0.000000
      f+2     :     0.001191
      f-2     :    -0.000000
      f+3     :     0.000534
      f-3     :     0.000000
  1 H s       :     0.683636  s :     0.683636
      pz      :     0.056973  p :     0.162903
      px      :     0.057666
      py      :     0.048264
  2 H s       :     0.683636  s :     0.683636
      pz      :     0.056973  p :     0.162903
      px      :     0.057666
      py      :     0.048264


                      *****************************
                      * MAYER POPULATION ANALYSIS *
                      *****************************

  NA   - Mulliken gross atomic population
  ZA   - Total nuclear charge
  QA   - Mulliken gross atomic charge
  VA   - Mayer's total valence
  BVA  - Mayer's bonded valence
  FA   - Mayer's free valence

  ATOM       NA         ZA         QA         VA         BVA        FA
  0 O      8.6411     8.0000    -0.6411     1.8190     1.8190     0.0000
  1 H      0.6795     1.0000     0.3205     0.9149     0.9149     0.0000
  2 H      0.6795     1.0000     0.3205     0.9149     0.9149    -0.0000

  Mayer bond orders larger than 0.100000
B(  0-O ,  1-H ) :   0.9095 B(  0-O ,  2-H ) :   0.9095 

-------
TIMINGS
-------

Total SCF time: 0 days 0 hours 0 min 1 sec 

Total time                  ....       1.518 sec
Sum of individual times     ....       1.295 sec  ( 85.3%)

Fock matrix formation       ....       1.090 sec  ( 71.8%)
  XC integration            ....       0.059 sec  (  5.4% of F)
    Basis function eval.    ....       0.003 sec  (  5.0% of XC)
    Density eval.           ....       0.003 sec  (  4.8% of XC)
    XC-Functional eval.     ....       0.003 sec  (  4.3% of XC)
    XC-Potential eval.      ....       0.002 sec  (  4.2% of XC)
Diagonalization             ....       0.004 sec  (  0.2%)
Density matrix formation    ....       0.002 sec  (  0.1%)
Population analysis         ....       0.015 sec  (  1.0%)
Initial guess               ....       0.111 sec  (  7.3%)
Orbital Transformation      ....       0.000 sec  (  0.0%)
Orbital Orthonormalization  ....       0.000 sec  (  0.0%)
DIIS solution               ....       0.004 sec  (  0.3%)
SOSCF solution              ....       0.001 sec  (  0.1%)
Grid generation             ....       0.068 sec  (  4.5%)

-------------------------   --------------------
FINAL SINGLE POINT ENERGY       -76.377326061310
-------------------------   --------------------


                            ***************************************
                            *     ORCA property calculations      *
                            ***************************************

                                    ---------------------
                                    Active property flags
                                    ---------------------
   (+) Dipole Moment
   (+) Polarizability


------------------------------------------------------------------------------
                       ORCA ELECTRIC PROPERTIES CALCULATION
------------------------------------------------------------------------------

Dipole Moment Calculation                       ... on
Quadrupole Moment Calculation                   ... off
Polarizability Calculation                      ... Analytic (CP-SCF)
GBWName                                         ... waterCHELPG.gbw
Electron density file                           ... waterCHELPG.scfp
The origin for moment calculation is the CENTER OF MASS  = ( 0.000000,  0.000000  0.115283)

-------------
DIPOLE MOMENT
-------------
                                X             Y             Z
Electronic contribution:      0.00000       0.00000      -0.15940
Nuclear contribution   :     -0.00000       0.00000       0.97196
                        -----------------------------------------
Total Dipole Moment    :     -0.00000       0.00000       0.81256
                        -----------------------------------------
Magnitude (a.u.)       :      0.81256
Magnitude (Debye)      :      2.06536



--------------------
Rotational spectrum 
--------------------
 
Rotational constants in cm-1:    27.620649    14.421510     9.474572 
Rotational constants in MHz : 828046.232126 432345.989182 284040.524263 

 Dipole components along the rotational axes: 
x,y,z [a.u.] :    -0.000000     0.812558     0.000000 
x,y,z [Debye]:    -0.000000     2.065359     0.000000 

 
Transforming and storing MO dipole integrals   ... done

                ... starting polarizability calculation

Opening the Dipole integral file               ... (waterCHELPG.dmo.tmp) done
Reading Dipole-MO integrals                    ... done
Solving CP-SCF equations                       ... 

           ************************************************************
           *        Program running with 26 parallel MPI-processes    *
           *              working on a common directory               *
           ************************************************************

------------------------------------------------------------------------------
                           ORCA CP-SCF CALCULATION
------------------------------------------------------------------------------

Input orbitals are from        ... waterCHELPG.gbw
Input Perturbation             ... waterCHELPG.cpv.tmp
Wavefunction output            ... waterCHELPG.cpu.tmp
Perturbation mode              ... Real perturbation (singlet)
Solver                         ... POPLE
Max. number of iterations      ... 64
Convergence tolerance          ... 1.000e-06
Integral handling              ... Direct
Number of perturbations        ... 3
Number of operators            ... 1
Orbital ranges used for CP-SCF:
 Operator 0:  Orbitals   0...  4  to   5... 42
DFT calculation                         ... on
Exchange functional (SCF)               ... PBE
Exchange functional (CP-SCF)            ... PBE
   PBE kappa parameter  XKappa (SCF)    ...  0.804000
   PBE kappa parameter  XKappa (CP-SCF) ...  0.804000
   PBE mue parameter   XMuePBE (SCF)    ...  0.219520
   PBE mue parameter   XMuePBE (CP-SCF) ...  0.219520
Correlation functional (SCF)            ... PBE
Correlation functional (CP-SCF)         ... PBE
   PBE beta parameter CBetaPBE (SCF)    ...  0.066725
   PBE beta parameter CBetaPBE (CP-SCF) ...  0.066725
 LDA part of GGA corr.  LDAOpt (SCF)    ... PW91-LDA
 LDA part of GGA corr.  LDAOpt (CP-SCF) ... PW91-LDA
Hybrid DFT                              ... on
   Exchange mixing (SCF)                ...  0.250
   Exchange mixing (CP-SCF)             ...  0.250
   GGA exch. scaling(SCF)               ...  0.750
   GGA exch. scaling (CP-SCF)           ...  0.750
   GGA corr. scaling (SCF)              ...  1.000
   GGA corr. scaling (CP-SCF)           ...  1.000
Variables per vector in CP-SCF ... 190
Number of vectors sought       ... 3
Recalculating density on grid  ... done
Calculating the xc-kernel      ... done
     CP-SCF ITERATION   0: 
     CP-SCF ITERATION   1:      0.034482827297
     CP-SCF ITERATION   2:      0.000376120243
     CP-SCF ITERATION   3:      0.000002946794
     CP-SCF ITERATION   4:      0.000000075421
done
Reading CP-SCF coefficients                    ... done
Doing the polarizability tensor                ... done
Cleaning up                                    ... done

-------------------------
THE POLARIZABILITY TENSOR
-------------------------

The raw cartesian tensor (atomic units):
    7.96665      0.00000      0.00000  
    0.00000      5.21002     -0.00000  
    0.00000     -0.00000      6.51870  
diagonalized tensor: 
    5.21002      6.51870      7.96665  

   -0.00000      0.00000     -1.00000  
    1.00000      0.00000     -0.00000  
    0.00000     -1.00000     -0.00000  

Isotropic polarizability :   6.56512

------------------------------------------------------------------------------
                      ORCA CHELPG CHARGES GENERATION
------------------------------------------------------------------------------

GBW file                           ... waterCHELPG.gbw

Reading the GBW file               ... done

Grid spacing                       ...     0.300000
Point Cut-Off                      ...     2.800000
Van-der-Waals Radii                ...        COSMO
Total charge                       ...            0


Number of points X direction       ...           23
Number of points Y direction       ...           18
Number of points Z direction       ...           20
Maximum number of possible points  ...         8280
Final number of points             ...         3899


CHELPG Charges            
--------------------------------
  0   O   :      -0.758555
  1   H   :       0.378750
  2   H   :       0.379805
--------------------------------
Total charge:     0.000000
--------------------------------

CHELPG charges calculated...

Timings for individual parts in CHELPG calculation:
Grid generation                 ...        0.000 sec (=   0.000 min)
Potential calculation           ...        0.192 sec (=   0.003 min)
Fit to the potential            ...        0.005 sec (=   0.000 min)
------------------------------------------------------------------------------

------------------------------------------------------------------------------
                      ORCA CHELPG CHARGES GENERATION
------------------------------------------------------------------------------

GBW file                           ... waterCHELPG.gbw

Density file                       ... waterCHELPG.scfp

Reading the GBW file               ... done

Reading the density               ... Done!
Grid spacing                       ...     0.300000
Point Cut-Off                      ...     2.800000
Van-der-Waals Radii                ...        COSMO
Total charge                       ...            0


Number of points X direction       ...           23
Number of points Y direction       ...           18
Number of points Z direction       ...           20
Maximum number of possible points  ...         8280
Final number of points             ...         3899


CHELPG Charges            
--------------------------------
  0   O   :      -0.758555
  1   H   :       0.378750
  2   H   :       0.379805
--------------------------------
Total charge:     0.000000
--------------------------------

CHELPG charges calculated...

Timings for individual parts in CHELPG calculation:
Grid generation                 ...        0.001 sec (=   0.000 min)
Potential calculation           ...        0.188 sec (=   0.003 min)
Fit to the potential            ...        0.000 sec (=   0.000 min)
------------------------------------------------------------------------------


Timings for individual modules:

Sum of individual times         ...        4.254 sec (=   0.071 min)
GTO integral calculation        ...        0.647 sec (=   0.011 min)  15.2 %
SCF iterations                  ...        1.842 sec (=   0.031 min)  43.3 %
Solution of CP-SCF eqns.        ...        1.545 sec (=   0.026 min)  36.3 %
CHELPG charge generation        ...        0.220 sec (=   0.004 min)   5.2 %
                             ****ORCA TERMINATED NORMALLY****
TOTAL RUN TIME: 0 days 0 hours 0 minutes 5 seconds 529 msec
