
                                 *****************
                                 * O   R   C   A *
                                 *****************

           --- An Ab Initio, DFT and Semiempirical electronic structure package ---

                  #######################################################
                  #                        -***-                        #
                  #          Department of theory and spectroscopy      #
                  #               Directorship: Frank Neese             #
                  #        Max Planck Institute fuer Kohlenforschung    #
                  #                Kaiser Wilhelm Platz 1               #
                  #                 D-45470 Muelheim/Ruhr               #
                  #                      Germany                        #
                  #                                                     #
                  #                  All rights reserved                #
                  #                        -***-                        #
                  #######################################################


                         Program Version 4.2.1 -  RELEASE  -


 With contributions from (in alphabetic order):
   Daniel Aravena         : Magnetic Suceptibility
   Michael Atanasov       : Ab Initio Ligand Field Theory (pilot matlab implementation)
   Alexander A. Auer      : GIAO ZORA, VPT2
   Ute Becker             : Parallelization
   Giovanni Bistoni       : ED, misc. LED, open-shell LED, HFLD
   Martin Brehm           : Molecular dynamics
   Dmytro Bykov           : SCF Hessian
   Vijay G. Chilkuri      : MRCI spin determinant printing, contributions to CSF-ICE
   Dipayan Datta          : RHF DLPNO-CCSD density
   Achintya Kumar Dutta   : EOM-CC, STEOM-CC
   Dmitry Ganyushin       : Spin-Orbit,Spin-Spin,Magnetic field MRCI
   Miquel Garcia          : C-PCM Hessian, Gaussian charge scheme
   Yang Guo               : DLPNO-NEVPT2, CIM, IAO-localization
   Andreas Hansen         : Spin unrestricted coupled pair/coupled cluster methods
   Benjamin Helmich-Paris : CASSCF linear response (MC-RPA)
   Lee Huntington         : MR-EOM, pCC
   Robert Izsak           : Overlap fitted RIJCOSX, COSX-SCS-MP3, EOM
   Christian Kollmar      : KDIIS, OOCD, Brueckner-CCSD(T), CCSD density
   Simone Kossmann        : Meta GGA functionals, TD-DFT gradient, OOMP2, MP2 Hessian
   Martin Krupicka        : AUTO-CI
   Lucas Lang             : DCDCAS
   Dagmar Lenk            : GEPOL surface, SMD
   Dimitrios Liakos       : Extrapolation schemes; Compound Job, initial MDCI parallelization
   Dimitrios Manganas     : Further ROCIS development; embedding schemes
   Dimitrios Pantazis     : SARC Basis sets
   Taras Petrenko         : DFT Hessian,TD-DFT gradient, ASA, ECA, R-Raman, ABS, FL, XAS/XES, NRVS
   Peter Pinski           : DLPNO-MP2, DLPNO-MP2 Gradient
   Christoph Reimann      : Effective Core Potentials
   Marius Retegan         : Local ZFS, SOC
   Christoph Riplinger    : Optimizer, TS searches, QM/MM, DLPNO-CCSD(T), (RO)-DLPNO pert. Triples
   Tobias Risthaus        : Range-separated hybrids, TD-DFT gradient, RPA, STAB
   Michael Roemelt        : Original ROCIS implementation
   Masaaki Saitow         : Open-shell DLPNO-CCSD energy and density
   Barbara Sandhoefer     : DKH picture change effects
   Avijit Sen             : IP-ROCIS
   Kantharuban Sivalingam : CASSCF convergence, NEVPT2, FIC-MRCI
   Bernardo de Souza      : ESD, SOC TD-DFT
   Georgi Stoychev        : AutoAux, RI-MP2 NMR
   Willem Van den Heuvel  : Paramagnetic NMR
   Boris Wezisla          : Elementary symmetry handling
   Frank Wennmohs         : Technical directorship


 We gratefully acknowledge several colleagues who have allowed us to
 interface, adapt or use parts of their codes:
   Stefan Grimme, W. Hujo, H. Kruse,             : VdW corrections, initial TS optimization,
                  C. Bannwarth                     DFT functionals, gCP, sTDA/sTD-DF
   Ed Valeev, F. Pavosevic, A. Kumar             : LibInt (2-el integral package), F12 methods
   Garnet Chan, S. Sharma, J. Yang, R. Olivares  : DMRG
   Ulf Ekstrom                                   : XCFun DFT Library
   Mihaly Kallay                                 : mrcc  (arbitrary order and MRCC methods)
   Andreas Klamt, Michael Diedenhofen            : otool_cosmo (COSMO solvation model)
   Jiri Pittner, Ondrej Demel                    : Mk-CCSD
   Frank Weinhold                                : gennbo (NPA and NBO analysis)
   Christopher J. Cramer and Donald G. Truhlar   : smd solvation model
   Lars Goerigk                                  : TD-DFT with DH, B97 family of functionals
   V. Asgeirsson, H. Jonsson                     : NEB implementation
   FAccTs GmbH                                   : IRC, NEB, NEB-TS, Multilevel, MM, QM/MM, CI optimization
   S Lehtola, MJT Oliveira, MAL Marques          : LibXC Library


 Your calculation uses the libint2 library for the computation of 2-el integrals
 For citations please refer to: http://libint.valeyev.net

 Your ORCA version has been built with support for libXC version: 4.2.3
 For citations please refer to: https://tddft.org/programs/libxc/

 This ORCA versions uses:
   CBLAS   interface :  Fast vector & matrix operations
   LAPACKE interface :  Fast linear algebra routines
   SCALAPACK package :  Parallel linear algebra routines




***************************************
The coordinates will be read from file: waterOpt.xyz
***************************************


----- Orbital basis set information -----
Your calculation utilizes the basis: def2-SVP
   F. Weigend and R. Ahlrichs, Phys. Chem. Chem. Phys. 7, 3297 (2005).

================================================================================
                                        WARNINGS
                       Please study these warnings very carefully!
================================================================================


INFO   : the flag for use of LIBINT has been found!

================================================================================
                                       INPUT FILE
================================================================================
NAME = waterCHELPG.inp
|  1> !PBE0 def2-SVP CHELPG
|  2> 
|  3> *xyzfile 0 1 waterOpt.xyz
|  4> 
|  5> %pal
|  6>  nprocs 26
|  7> end
|  8> 
|  9> %elprop
| 10> Polar 1
| 11> end
| 12> 
| 13> 
| 14>                          ****END OF INPUT****
================================================================================

                       ****************************
                       * Single Point Calculation *
                       ****************************

---------------------------------
CARTESIAN COORDINATES (ANGSTROEM)
---------------------------------
  O      0.000000    0.000000   -0.013697
  H      0.754409    0.000000    0.584207
  H     -0.754409    0.000000    0.584207

----------------------------
CARTESIAN COORDINATES (A.U.)
----------------------------
  NO LB      ZA    FRAG     MASS         X           Y           Z
   0 O     8.0000    0    15.999    0.000000    0.000000   -0.025883
   1 H     1.0000    0     1.008    1.425626    0.000000    1.103992
   2 H     1.0000    0     1.008   -1.425626    0.000000    1.103992

--------------------------------
INTERNAL COORDINATES (ANGSTROEM)
--------------------------------
 O      0   0   0     0.000000000000     0.00000000     0.00000000
 H      1   0   0     0.962612162451     0.00000000     0.00000000
 H      1   2   0     0.962612162723   103.20306175     0.00000000

---------------------------
INTERNAL COORDINATES (A.U.)
---------------------------
 O      0   0   0     0.000000000000     0.00000000     0.00000000
 H      1   0   0     1.819073360215     0.00000000     0.00000000
 H      1   2   0     1.819073360728   103.20306175     0.00000000

---------------------
BASIS SET INFORMATION
---------------------
There are 2 groups of distinct atoms

 Group   1 Type O   : 7s4p1d contracted to 3s2p1d pattern {511/31/1}
 Group   2 Type H   : 4s1p contracted to 2s1p pattern {31/1}

Atom   0O    basis set group =>   1
Atom   1H    basis set group =>   2
Atom   2H    basis set group =>   2


           ************************************************************
           *        Program running with 26 parallel MPI-processes    *
           *              working on a common directory               *
           ************************************************************
------------------------------------------------------------------------------
                           ORCA GTO INTEGRAL CALCULATION
------------------------------------------------------------------------------

                         BASIS SET STATISTICS AND STARTUP INFO

 # of primitive gaussian shells          ...   22
 # of primitive gaussian functions       ...   38
 # of contracted shells                  ...   12
 # of contracted basis functions         ...   24
 Highest angular momentum                ...    2
 Maximum contraction depth               ...    5
 Integral package used                   ... LIBINT
 Integral threshhold            Thresh   ...  1.000e-10
 Primitive cut-off              TCut     ...  1.000e-11


------------------------------ INTEGRAL EVALUATION ----------------------------


 * One electron integrals 
 Pre-screening matrix                    ... done
 Shell pair data                         ... done (   0.000 sec)



           ************************************************************
           *        Program running with 26 parallel MPI-processes    *
           *              working on a common directory               *
           ************************************************************
-------------------------------------------------------------------------------
                                 ORCA SCF
-------------------------------------------------------------------------------

------------
SCF SETTINGS
------------
Hamiltonian:
 Density Functional     Method          .... DFT(GTOs)
 Exchange Functional    Exchange        .... PBE
   PBE kappa parameter   XKappa         ....  0.804000
   PBE mue parameter    XMuePBE         ....  0.219520
 Correlation Functional Correlation     .... PBE
   PBE beta parameter  CBetaPBE         ....  0.066725
 LDA part of GGA corr.  LDAOpt          .... PW91-LDA
 Gradients option       PostSCFGGA      .... off
 Hybrid DFT is turned on
   Fraction HF Exchange ScalHFX         ....  0.250000
   Scaling of DF-GGA-X  ScalDFX         ....  0.750000
   Scaling of DF-GGA-C  ScalDFC         ....  1.000000
   Scaling of DF-LDA-C  ScalLDAC        ....  1.000000
   Perturbative correction              ....  0.000000
   Density functional embedding theory  .... OFF
   NL short-range parameter             ....  6.900000


General Settings:
 Integral files         IntName         .... waterCHELPG
 Hartree-Fock type      HFTyp           .... RHF
 Total Charge           Charge          ....    0
 Multiplicity           Mult            ....    1
 Number of Electrons    NEL             ....   10
 Basis Dimension        Dim             ....   24
 Nuclear Repulsion      ENuc            ....      9.1464101513 Eh

Convergence Acceleration:
 DIIS                   CNVDIIS         .... on
   Start iteration      DIISMaxIt       ....    12
   Startup error        DIISStart       ....  0.200000
   # of expansion vecs  DIISMaxEq       ....     5
   Bias factor          DIISBfac        ....   1.050
   Max. coefficient     DIISMaxC        ....  10.000
 Newton-Raphson         CNVNR           .... off
 SOSCF                  CNVSOSCF        .... on
   Start iteration      SOSCFMaxIt      ....   150
   Startup grad/error   SOSCFStart      ....  0.003300
 Level Shifting         CNVShift        .... on
   Level shift para.    LevelShift      ....    0.2500
   Turn off err/grad.   ShiftErr        ....    0.0010
 Zerner damping         CNVZerner       .... off
 Static damping         CNVDamp         .... on
   Fraction old density DampFac         ....    0.7000
   Max. Damping (<1)    DampMax         ....    0.9800
   Min. Damping (>=0)   DampMin         ....    0.0000
   Turn off err/grad.   DampErr         ....    0.1000
 Fernandez-Rico         CNVRico         .... off

SCF Procedure:
 Maximum # iterations   MaxIter         ....   125
 SCF integral mode      SCFMode         .... Direct
   Integral package                     .... LIBINT
 Reset frequency        DirectResetFreq ....    20
 Integral Threshold     Thresh          ....  1.000e-10 Eh
 Primitive CutOff       TCut            ....  1.000e-11 Eh

Convergence Tolerance:
 Convergence Check Mode ConvCheckMode   .... Total+1el-Energy
 Convergence forced     ConvForced      .... 0
 Energy Change          TolE            ....  1.000e-06 Eh
 1-El. energy change                    ....  1.000e-03 Eh
 Orbital Gradient       TolG            ....  5.000e-05
 Orbital Rotation angle TolX            ....  5.000e-05
 DIIS Error             TolErr          ....  1.000e-06


Diagonalization of the overlap matrix:
Smallest eigenvalue                        ... 3.765e-02
Time for diagonalization                   ...    0.001 sec
Threshold for overlap eigenvalues          ... 1.000e-08
Number of eigenvalues below threshold      ... 0
Time for construction of square roots      ...    0.001 sec
Total time needed                          ...    0.001 sec

-------------------
DFT GRID GENERATION
-------------------

General Integration Accuracy     IntAcc      ...  4.340
Radial Grid Type                 RadialGrid  ... Gauss-Chebyshev
Angular Grid (max. acc.)         AngularGrid ... Lebedev-110
Angular grid pruning method      GridPruning ... 3 (G Style)
Weight generation scheme         WeightScheme... Becke
Basis function cutoff            BFCut       ...    1.0000e-10
Integration weight cutoff        WCut        ...    1.0000e-14
Grids for H and He will be reduced by one unit

# of grid points (after initial pruning)     ...   3304 (   0.0 sec)
# of grid points (after weights+screening)   ...   3252 (   0.0 sec)
nearest neighbour list constructed           ...    0.0 sec
Grid point re-assignment to atoms done       ...    0.0 sec
Grid point division into batches done        ...    0.0 sec
Reduced shell lists constructed in    0.0 sec

Total number of grid points                  ...     3252
Total number of batches                      ...       52
Average number of points per batch           ...       62
Average number of grid points per atom       ...     1084
Average number of shells per batch           ...     7.33 (61.11%)
Average number of basis functions per batch  ...    15.33 (63.89%)
Average number of large shells per batch     ...     7.33 (100.00%)
Average number of large basis fcns per batch ...    15.33 (100.00%)
Maximum spatial batch extension              ...  10.94, 15.00, 12.83 au
Average spatial batch extension              ...   0.42,  0.58,  0.49 au

Time for grid setup =    0.008 sec

------------------------------
INITIAL GUESS: MODEL POTENTIAL
------------------------------
Loading Hartree-Fock densities                     ... done
Calculating cut-offs                               ... done
Setting up the integral package                    ... done
Initializing the effective Hamiltonian             ... done
Starting the Coulomb interaction                   ... done (   0.0 sec)
Reading the grid                                   ... done
Mapping shells                                     ... done
Starting the XC term evaluation                    ... done (   0.0 sec)
  promolecular density results
     # of electrons  =      9.996375042
     EX              =     -8.729270532
     EC              =     -0.316218673
     EX+EC           =     -9.045489204
Transforming the Hamiltonian                       ... done (   0.0 sec)
Diagonalizing the Hamiltonian                      ... done (   0.0 sec)
Back transforming the eigenvectors                 ... done (   0.0 sec)
Now organizing SCF variables                       ... done
                      ------------------
                      INITIAL GUESS DONE (   0.1 sec)
                      ------------------
--------------
SCF ITERATIONS
--------------
ITER       Energy         Delta-E        Max-DP      RMS-DP      [F,P]     Damp
               ***  Starting incremental Fock matrix formation  ***
  0    -76.1902646920   0.000000000000 0.08153023  0.00854063  0.2909965 0.7000
  1    -76.2315382689  -0.041273576824 0.04721830  0.00494439  0.1291169 0.7000
                               ***Turning on DIIS***
  2    -76.2464094946  -0.014871225740 0.05969551  0.00611548  0.0393548 0.0000
  3    -76.2706754895  -0.024265994840 0.03125580  0.00331549  0.0725364 0.0000
  4    -76.2757559232  -0.005080433749 0.00455739  0.00055390  0.0095568 0.0000
                      *** Initiating the SOSCF procedure ***
                           *** Shutting down DIIS ***
                      *** Re-Reading the Fockian *** 
                      *** Removing any level shift *** 
ITER      Energy       Delta-E        Grad      Rot      Max-DP    RMS-DP
  5    -76.27587040  -0.0001144762  0.000665  0.000665  0.001232  0.000142
               *** Restarting incremental Fock matrix formation ***
  6    -76.27587478  -0.0000043768  0.000273  0.000611  0.000924  0.000088
  7    -76.27587503  -0.0000002535  0.000265  0.000116  0.000317  0.000028
                 **** Energy Check signals convergence ****
              ***Rediagonalizing the Fockian in SOSCF/NRSCF***

               *****************************************************
               *                     SUCCESS                       *
               *           SCF CONVERGED AFTER   8 CYCLES          *
               *****************************************************

Setting up the final grid:

General Integration Accuracy     IntAcc      ...  4.670
Radial Grid Type                 RadialGrid  ... Gauss-Chebyshev
Angular Grid (max. acc.)         AngularGrid ... Lebedev-302
Angular grid pruning method      GridPruning ... 3 (G Style)
Weight generation scheme         WeightScheme... Becke
Basis function cutoff            BFCut       ...    1.0000e-10
Integration weight cutoff        WCut        ...    1.0000e-14
Grids for H and He will be reduced by one unit

# of grid points (after initial pruning)     ...  13000 (   0.0 sec)
# of grid points (after weights+screening)   ...  12896 (   0.0 sec)
nearest neighbour list constructed           ...    0.0 sec
Grid point re-assignment to atoms done       ...    0.0 sec
Grid point division into batches done        ...    0.0 sec
Reduced shell lists constructed in    0.1 sec

Total number of grid points                  ...    12896
Total number of batches                      ...      203
Average number of points per batch           ...       63
Average number of grid points per atom       ...     4299
Average number of shells per batch           ...     3.33 (27.78%)
Average number of basis functions per batch  ...     5.33 (22.22%)
Average number of large shells per batch     ...     2.33 (70.00%)
Average number of large basis fcns per batch ...     3.00 (56.25%)
Maximum spatial batch extension              ...  16.88, 13.13, 11.55 au
Average spatial batch extension              ...   0.46,  0.41,  0.40 au

Final grid set up in    0.1 sec
Final integration                            ... done (   0.0 sec)
Change in XC energy                          ...    -0.000450741
Integrated number of electrons               ...     9.999974731
Previous integrated no of electrons          ...     9.997388998

----------------
TOTAL SCF ENERGY
----------------

Total Energy       :          -76.27632596 Eh           -2075.58435 eV

Components:
Nuclear Repulsion  :            9.14641015 Eh             248.88647 eV
Electronic Energy  :          -85.42273611 Eh           -2324.47082 eV
One Electron Energy:         -123.00511860 Eh           -3347.13944 eV
Two Electron Energy:           37.58238248 Eh            1022.66862 eV

Virial components:
Potential Energy   :         -152.08010869 Eh           -4138.31014 eV
Kinetic Energy     :           75.80378272 Eh            2062.72579 eV
Virial Ratio       :            2.00623377


DFT components:
N(Alpha)           :        4.999987365616 electrons
N(Beta)            :        4.999987365616 electrons
N(Total)           :        9.999974731232 electrons
E(X)               :       -6.701158240326 Eh       
E(C)               :       -0.331266506427 Eh       
E(XC)              :       -7.032424746753 Eh       
DFET-embed. en.    :        0.000000000000 Eh       

---------------
SCF CONVERGENCE
---------------

  Last Energy change         ...   -1.9135e-07  Tolerance :   1.0000e-06
  Last MAX-Density change    ...    7.5226e-05  Tolerance :   1.0000e-05
  Last RMS-Density change    ...    1.0485e-05  Tolerance :   1.0000e-06
  Last Orbital Gradient      ...    4.1892e-05  Tolerance :   5.0000e-05
  Last Orbital Rotation      ...    6.2379e-05  Tolerance :   5.0000e-05

             **** THE GBW FILE WAS UPDATED (waterCHELPG.gbw) ****
             **** DENSITY FILE WAS UPDATED (waterCHELPG.scfp) ****
             **** ENERGY FILE WAS UPDATED (waterCHELPG.en.tmp) ****
             **** THE GBW FILE WAS UPDATED (waterCHELPG.gbw) ****
             **** DENSITY FILE WAS UPDATED (waterCHELPG.scfp) ****
----------------
ORBITAL ENERGIES
----------------

  NO   OCC          E(Eh)            E(eV) 
   0   2.0000     -19.192505      -522.2546 
   1   2.0000      -1.007113       -27.4049 
   2   2.0000      -0.526413       -14.3244 
   3   2.0000      -0.382673       -10.4131 
   4   2.0000      -0.305055        -8.3010 
   5   0.0000       0.064239         1.7480 
   6   0.0000       0.141999         3.8640 
   7   0.0000       0.576362        15.6836 
   8   0.0000       0.644297        17.5322 
   9   0.0000       0.941453        25.6182 
  10   0.0000       0.948209        25.8021 
  11   0.0000       1.031635        28.0722 
  12   0.0000       1.112533        30.2736 
  13   0.0000       1.357815        36.9480 
  14   0.0000       1.410358        38.3778 
  15   0.0000       1.554802        42.3083 
  16   0.0000       1.804313        49.0979 
  17   0.0000       2.229403        60.6651 
  18   0.0000       2.275325        61.9148 
  19   0.0000       2.979437        81.0746 
  20   0.0000       3.016493        82.0829 
  21   0.0000       3.206378        87.2500 
  22   0.0000       3.511177        95.5440 
  23   0.0000       3.848018       104.7099 

                    ********************************
                    * MULLIKEN POPULATION ANALYSIS *
                    ********************************

-----------------------
MULLIKEN ATOMIC CHARGES
-----------------------
   0 O :   -0.305682
   1 H :    0.152841
   2 H :    0.152841
Sum of atomic charges:    0.0000000

--------------------------------
MULLIKEN REDUCED ORBITAL CHARGES
--------------------------------
  0 O s       :     3.688416  s :     3.688416
      pz      :     1.497722  p :     4.606517
      px      :     1.151512
      py      :     1.957284
      dz2     :     0.001599  d :     0.010750
      dxz     :     0.007200
      dyz     :     0.001255
      dx2y2   :     0.000696
      dxy     :     0.000000
  1 H s       :     0.773594  s :     0.773594
      pz      :     0.022980  p :     0.073564
      px      :     0.029854
      py      :     0.020731
  2 H s       :     0.773594  s :     0.773594
      pz      :     0.022980  p :     0.073564
      px      :     0.029854
      py      :     0.020731


                     *******************************
                     * LOEWDIN POPULATION ANALYSIS *
                     *******************************

----------------------
LOEWDIN ATOMIC CHARGES
----------------------
   0 O :   -0.148182
   1 H :    0.074091
   2 H :    0.074091

-------------------------------
LOEWDIN REDUCED ORBITAL CHARGES
-------------------------------
  0 O s       :     3.434713  s :     3.434713
      pz      :     1.570601  p :     4.693315
      px      :     1.233882
      py      :     1.888832
      dz2     :     0.001031  d :     0.020153
      dxz     :     0.015554
      dyz     :     0.000379
      dx2y2   :     0.003189
      dxy     :    -0.000000
  1 H s       :     0.746136  s :     0.746136
      pz      :     0.062913  p :     0.179773
      px      :     0.061466
      py      :     0.055394
  2 H s       :     0.746136  s :     0.746136
      pz      :     0.062913  p :     0.179773
      px      :     0.061466
      py      :     0.055394


                      *****************************
                      * MAYER POPULATION ANALYSIS *
                      *****************************

  NA   - Mulliken gross atomic population
  ZA   - Total nuclear charge
  QA   - Mulliken gross atomic charge
  VA   - Mayer's total valence
  BVA  - Mayer's bonded valence
  FA   - Mayer's free valence

  ATOM       NA         ZA         QA         VA         BVA        FA
  0 O      8.3057     8.0000    -0.3057     2.0160     2.0160     0.0000
  1 H      0.8472     1.0000     0.1528     1.0148     1.0148     0.0000
  2 H      0.8472     1.0000     0.1528     1.0148     1.0148     0.0000

  Mayer bond orders larger than 0.100000
B(  0-O ,  1-H ) :   1.0080 B(  0-O ,  2-H ) :   1.0080 

-------
TIMINGS
-------

Total SCF time: 0 days 0 hours 0 min 1 sec 

Total time                  ....       1.322 sec
Sum of individual times     ....       1.119 sec  ( 84.7%)

Fock matrix formation       ....       0.936 sec  ( 70.8%)
  XC integration            ....       0.027 sec  (  2.9% of F)
    Basis function eval.    ....       0.001 sec  (  5.3% of XC)
    Density eval.           ....       0.001 sec  (  4.1% of XC)
    XC-Functional eval.     ....       0.002 sec  (  5.6% of XC)
    XC-Potential eval.      ....       0.001 sec  (  2.6% of XC)
Diagonalization             ....       0.002 sec  (  0.1%)
Density matrix formation    ....       0.001 sec  (  0.1%)
Population analysis         ....       0.002 sec  (  0.1%)
Initial guess               ....       0.109 sec  (  8.3%)
Orbital Transformation      ....       0.000 sec  (  0.0%)
Orbital Orthonormalization  ....       0.000 sec  (  0.0%)
DIIS solution               ....       0.001 sec  (  0.1%)
SOSCF solution              ....       0.001 sec  (  0.1%)
Grid generation             ....       0.068 sec  (  5.1%)

-------------------------   --------------------
FINAL SINGLE POINT ENERGY       -76.276325962299
-------------------------   --------------------


                            ***************************************
                            *     ORCA property calculations      *
                            ***************************************

                                    ---------------------
                                    Active property flags
                                    ---------------------
   (+) Dipole Moment
   (+) Polarizability


------------------------------------------------------------------------------
                       ORCA ELECTRIC PROPERTIES CALCULATION
------------------------------------------------------------------------------

Dipole Moment Calculation                       ... on
Quadrupole Moment Calculation                   ... off
Polarizability Calculation                      ... Analytic (CP-SCF)
GBWName                                         ... waterCHELPG.gbw
Electron density file                           ... waterCHELPG.scfp
The origin for moment calculation is the CENTER OF MASS  = ( 0.000000,  0.000000  0.100557)

-------------
DIPOLE MOMENT
-------------
                                X             Y             Z
Electronic contribution:      0.00000       0.00000      -0.19794
Nuclear contribution   :     -0.00000       0.00000       0.99534
                        -----------------------------------------
Total Dipole Moment    :     -0.00000       0.00000       0.79741
                        -----------------------------------------
Magnitude (a.u.)       :      0.79741
Magnitude (Debye)      :      2.02685



--------------------
Rotational spectrum 
--------------------
 
Rotational constants in cm-1:    26.338105    14.692404     9.431276 
Rotational constants in MHz : 789596.512179 440467.177094 282742.552110 

 Dipole components along the rotational axes: 
x,y,z [a.u.] :    -0.000000     0.797407     0.000000 
x,y,z [Debye]:    -0.000000     2.026848     0.000000 

 
Transforming and storing MO dipole integrals   ... done

                ... starting polarizability calculation

Opening the Dipole integral file               ... (waterCHELPG.dmo.tmp) done
Reading Dipole-MO integrals                    ... done
Solving CP-SCF equations                       ... 

           ************************************************************
           *        Program running with 26 parallel MPI-processes    *
           *              working on a common directory               *
           ************************************************************

------------------------------------------------------------------------------
                           ORCA CP-SCF CALCULATION
------------------------------------------------------------------------------

Input orbitals are from        ... waterCHELPG.gbw
Input Perturbation             ... waterCHELPG.cpv.tmp
Wavefunction output            ... waterCHELPG.cpu.tmp
Perturbation mode              ... Real perturbation (singlet)
Solver                         ... POPLE
Max. number of iterations      ... 64
Convergence tolerance          ... 1.000e-06
Integral handling              ... Direct
Number of perturbations        ... 3
Number of operators            ... 1
Orbital ranges used for CP-SCF:
 Operator 0:  Orbitals   0...  4  to   5... 23
DFT calculation                         ... on
Exchange functional (SCF)               ... PBE
Exchange functional (CP-SCF)            ... PBE
   PBE kappa parameter  XKappa (SCF)    ...  0.804000
   PBE kappa parameter  XKappa (CP-SCF) ...  0.804000
   PBE mue parameter   XMuePBE (SCF)    ...  0.219520
   PBE mue parameter   XMuePBE (CP-SCF) ...  0.219520
Correlation functional (SCF)            ... PBE
Correlation functional (CP-SCF)         ... PBE
   PBE beta parameter CBetaPBE (SCF)    ...  0.066725
   PBE beta parameter CBetaPBE (CP-SCF) ...  0.066725
 LDA part of GGA corr.  LDAOpt (SCF)    ... PW91-LDA
 LDA part of GGA corr.  LDAOpt (CP-SCF) ... PW91-LDA
Hybrid DFT                              ... on
   Exchange mixing (SCF)                ...  0.250
   Exchange mixing (CP-SCF)             ...  0.250
   GGA exch. scaling(SCF)               ...  0.750
   GGA exch. scaling (CP-SCF)           ...  0.750
   GGA corr. scaling (SCF)              ...  1.000
   GGA corr. scaling (CP-SCF)           ...  1.000
Variables per vector in CP-SCF ... 95
Number of vectors sought       ... 3
Recalculating density on grid  ... done
Calculating the xc-kernel      ... done
     CP-SCF ITERATION   0: 
     CP-SCF ITERATION   1:      0.018940565125
     CP-SCF ITERATION   2:      0.000272443638
     CP-SCF ITERATION   3:      0.000001700178
     CP-SCF ITERATION   4:      0.000000034434
done
Reading CP-SCF coefficients                    ... done
Doing the polarizability tensor                ... done
Cleaning up                                    ... done

-------------------------
THE POLARIZABILITY TENSOR
-------------------------

The raw cartesian tensor (atomic units):
    7.09185     -0.00000     -0.00000  
   -0.00000      3.12214     -0.00000  
   -0.00000     -0.00000      5.36863  
diagonalized tensor: 
    3.12214      5.36863      7.09185  

    0.00000      0.00000     -1.00000  
    1.00000     -0.00000      0.00000  
    0.00000      1.00000      0.00000  

Isotropic polarizability :   5.19421

------------------------------------------------------------------------------
                      ORCA CHELPG CHARGES GENERATION
------------------------------------------------------------------------------

GBW file                           ... waterCHELPG.gbw

Reading the GBW file               ... done

Grid spacing                       ...     0.300000
Point Cut-Off                      ...     2.800000
Van-der-Waals Radii                ...        COSMO
Total charge                       ...            0


Number of points X direction       ...           23
Number of points Y direction       ...           18
Number of points Z direction       ...           20
Maximum number of possible points  ...         8280
Final number of points             ...         3882


CHELPG Charges            
--------------------------------
  0   O   :      -0.722238
  1   H   :       0.360858
  2   H   :       0.361380
--------------------------------
Total charge:    -0.000000
--------------------------------

CHELPG charges calculated...

Timings for individual parts in CHELPG calculation:
Grid generation                 ...        0.001 sec (=   0.000 min)
Potential calculation           ...        0.114 sec (=   0.002 min)
Fit to the potential            ...        0.006 sec (=   0.000 min)
------------------------------------------------------------------------------

------------------------------------------------------------------------------
                      ORCA CHELPG CHARGES GENERATION
------------------------------------------------------------------------------

GBW file                           ... waterCHELPG.gbw

Density file                       ... waterCHELPG.scfp

Reading the GBW file               ... done

Reading the density               ... Done!
Grid spacing                       ...     0.300000
Point Cut-Off                      ...     2.800000
Van-der-Waals Radii                ...        COSMO
Total charge                       ...            0


Number of points X direction       ...           23
Number of points Y direction       ...           18
Number of points Z direction       ...           20
Maximum number of possible points  ...         8280
Final number of points             ...         3882


CHELPG Charges            
--------------------------------
  0   O   :      -0.722238
  1   H   :       0.360858
  2   H   :       0.361380
--------------------------------
Total charge:     0.000000
--------------------------------

CHELPG charges calculated...

Timings for individual parts in CHELPG calculation:
Grid generation                 ...        0.000 sec (=   0.000 min)
Potential calculation           ...        0.114 sec (=   0.002 min)
Fit to the potential            ...        0.000 sec (=   0.000 min)
------------------------------------------------------------------------------


Timings for individual modules:

Sum of individual times         ...        3.860 sec (=   0.064 min)
GTO integral calculation        ...        0.633 sec (=   0.011 min)  16.4 %
SCF iterations                  ...        1.675 sec (=   0.028 min)  43.4 %
Solution of CP-SCF eqns.        ...        1.408 sec (=   0.023 min)  36.5 %
CHELPG charge generation        ...        0.145 sec (=   0.002 min)   3.7 %
                             ****ORCA TERMINATED NORMALLY****
TOTAL RUN TIME: 0 days 0 hours 0 minutes 4 seconds 922 msec
