
                                 *****************
                                 * O   R   C   A *
                                 *****************

           --- An Ab Initio, DFT and Semiempirical electronic structure package ---

                  #######################################################
                  #                        -***-                        #
                  #          Department of theory and spectroscopy      #
                  #               Directorship: Frank Neese             #
                  #        Max Planck Institute fuer Kohlenforschung    #
                  #                Kaiser Wilhelm Platz 1               #
                  #                 D-45470 Muelheim/Ruhr               #
                  #                      Germany                        #
                  #                                                     #
                  #                  All rights reserved                #
                  #                        -***-                        #
                  #######################################################


                         Program Version 4.2.1 -  RELEASE  -


 With contributions from (in alphabetic order):
   Daniel Aravena         : Magnetic Suceptibility
   Michael Atanasov       : Ab Initio Ligand Field Theory (pilot matlab implementation)
   Alexander A. Auer      : GIAO ZORA, VPT2
   Ute Becker             : Parallelization
   Giovanni Bistoni       : ED, misc. LED, open-shell LED, HFLD
   Martin Brehm           : Molecular dynamics
   Dmytro Bykov           : SCF Hessian
   Vijay G. Chilkuri      : MRCI spin determinant printing, contributions to CSF-ICE
   Dipayan Datta          : RHF DLPNO-CCSD density
   Achintya Kumar Dutta   : EOM-CC, STEOM-CC
   Dmitry Ganyushin       : Spin-Orbit,Spin-Spin,Magnetic field MRCI
   Miquel Garcia          : C-PCM Hessian, Gaussian charge scheme
   Yang Guo               : DLPNO-NEVPT2, CIM, IAO-localization
   Andreas Hansen         : Spin unrestricted coupled pair/coupled cluster methods
   Benjamin Helmich-Paris : CASSCF linear response (MC-RPA)
   Lee Huntington         : MR-EOM, pCC
   Robert Izsak           : Overlap fitted RIJCOSX, COSX-SCS-MP3, EOM
   Christian Kollmar      : KDIIS, OOCD, Brueckner-CCSD(T), CCSD density
   Simone Kossmann        : Meta GGA functionals, TD-DFT gradient, OOMP2, MP2 Hessian
   Martin Krupicka        : AUTO-CI
   Lucas Lang             : DCDCAS
   Dagmar Lenk            : GEPOL surface, SMD
   Dimitrios Liakos       : Extrapolation schemes; Compound Job, initial MDCI parallelization
   Dimitrios Manganas     : Further ROCIS development; embedding schemes
   Dimitrios Pantazis     : SARC Basis sets
   Taras Petrenko         : DFT Hessian,TD-DFT gradient, ASA, ECA, R-Raman, ABS, FL, XAS/XES, NRVS
   Peter Pinski           : DLPNO-MP2, DLPNO-MP2 Gradient
   Christoph Reimann      : Effective Core Potentials
   Marius Retegan         : Local ZFS, SOC
   Christoph Riplinger    : Optimizer, TS searches, QM/MM, DLPNO-CCSD(T), (RO)-DLPNO pert. Triples
   Tobias Risthaus        : Range-separated hybrids, TD-DFT gradient, RPA, STAB
   Michael Roemelt        : Original ROCIS implementation
   Masaaki Saitow         : Open-shell DLPNO-CCSD energy and density
   Barbara Sandhoefer     : DKH picture change effects
   Avijit Sen             : IP-ROCIS
   Kantharuban Sivalingam : CASSCF convergence, NEVPT2, FIC-MRCI
   Bernardo de Souza      : ESD, SOC TD-DFT
   Georgi Stoychev        : AutoAux, RI-MP2 NMR
   Willem Van den Heuvel  : Paramagnetic NMR
   Boris Wezisla          : Elementary symmetry handling
   Frank Wennmohs         : Technical directorship


 We gratefully acknowledge several colleagues who have allowed us to
 interface, adapt or use parts of their codes:
   Stefan Grimme, W. Hujo, H. Kruse,             : VdW corrections, initial TS optimization,
                  C. Bannwarth                     DFT functionals, gCP, sTDA/sTD-DF
   Ed Valeev, F. Pavosevic, A. Kumar             : LibInt (2-el integral package), F12 methods
   Garnet Chan, S. Sharma, J. Yang, R. Olivares  : DMRG
   Ulf Ekstrom                                   : XCFun DFT Library
   Mihaly Kallay                                 : mrcc  (arbitrary order and MRCC methods)
   Andreas Klamt, Michael Diedenhofen            : otool_cosmo (COSMO solvation model)
   Jiri Pittner, Ondrej Demel                    : Mk-CCSD
   Frank Weinhold                                : gennbo (NPA and NBO analysis)
   Christopher J. Cramer and Donald G. Truhlar   : smd solvation model
   Lars Goerigk                                  : TD-DFT with DH, B97 family of functionals
   V. Asgeirsson, H. Jonsson                     : NEB implementation
   FAccTs GmbH                                   : IRC, NEB, NEB-TS, Multilevel, MM, QM/MM, CI optimization
   S Lehtola, MJT Oliveira, MAL Marques          : LibXC Library


 Your calculation uses the libint2 library for the computation of 2-el integrals
 For citations please refer to: http://libint.valeyev.net

 Your ORCA version has been built with support for libXC version: 4.2.3
 For citations please refer to: https://tddft.org/programs/libxc/

 This ORCA versions uses:
   CBLAS   interface :  Fast vector & matrix operations
   LAPACKE interface :  Fast linear algebra routines
   SCALAPACK package :  Parallel linear algebra routines



Reading of a custom basis requested
Basis file         : system.bas
READING GTO-BASIS: OXYGEN
READING GTO-BASIS: CARBON
READING GTO-BASIS: HYDROGEN
Basis successfully read

Reading of a custom AuxJ basis requested
Basis file: system.aux
READING GTO-BASIS: OXYGEN
READING GTO-BASIS: CARBON
READING GTO-BASIS: HYDROGEN
Basis read successfully!

----- Orbital basis set information -----
----- AuxJ basis set information -----
================================================================================
                                        WARNINGS
                       Please study these warnings very carefully!
================================================================================


INFO   : the flag for use of LIBINT has been found!

================================================================================
                                       INPUT FILE
================================================================================
NAME = temp.inp
|  1> * xyz  0 1
|  2>   O   -0.303698    9.710761    3.105882
|  3>   C    0.331926    9.400484    2.129443
|  4>   C    0.020347    9.964614    0.767688
|  5>   C    1.478821    8.426437    2.205318
|  6>   H   -0.734265   10.744439    0.849171
|  7>   H    0.922985   10.361240    0.294455
|  8>   H   -0.352571    9.166314    0.118039
|  9>   H    1.545058    8.004339    3.206078
| 10>   H    2.414310    8.940087    1.964241
| 11>   H    1.357680    7.628994    1.466945
| 12> * 
| 13> 
| 14> %pal
| 15> nprocs 26
| 16> end
| 17> 
| 18> %basis
| 19> GTOName ="system.bas";
| 20> GTOAuxName ="system.aux";
| 21> end
| 22>  
| 23> 
| 24> %pointcharges "background.crg"
| 25> ! DFT PBE0 TightSCF  
| 26> 
| 27> 
| 28>                          ****END OF INPUT****
================================================================================

                       ****************************
                       * Single Point Calculation *
                       ****************************

---------------------------------
CARTESIAN COORDINATES (ANGSTROEM)
---------------------------------
  O     -0.303698    9.710761    3.105882
  C      0.331926    9.400484    2.129443
  C      0.020347    9.964614    0.767688
  C      1.478821    8.426437    2.205318
  H     -0.734265   10.744439    0.849171
  H      0.922985   10.361240    0.294455
  H     -0.352571    9.166314    0.118039
  H      1.545058    8.004339    3.206078
  H      2.414310    8.940087    1.964241
  H      1.357680    7.628994    1.466945

----------------------------
CARTESIAN COORDINATES (A.U.)
----------------------------
  NO LB      ZA    FRAG     MASS         X           Y           Z
   0 O     8.0000    0    15.999   -0.573906   18.350679    5.869266
   1 C     6.0000    0    12.011    0.627249   17.764340    4.024064
   2 C     6.0000    0    12.011    0.038450   18.830391    1.450720
   3 C     6.0000    0    12.011    2.794567   15.923658    4.167447
   4 H     1.0000    0     1.008   -1.387560   20.304047    1.604701
   5 H     1.0000    0     1.008    1.744189   19.579906    0.556439
   6 H     1.0000    0     1.008   -0.666263   17.321823    0.223061
   7 H     1.0000    0     1.008    2.919736   15.126009    6.058609
   8 H     1.0000    0     1.008    4.562385   16.894316    3.711878
   9 H     1.0000    0     1.008    2.565643   14.416709    2.772124

--------------------------------
INTERNAL COORDINATES (ANGSTROEM)
--------------------------------
 O      0   0   0     0.000000000000     0.00000000     0.00000000
 C      1   0   0     1.205704278348     0.00000000     0.00000000
 C      2   1   0     1.506552624426   121.77753124     0.00000000
 C      2   1   3     1.506616313087   121.79621763   180.09356838
 H      3   2   1     1.088212194592   110.12499268     7.24843361
 H      3   2   1     1.093625628453   110.86910057   129.44076220
 H      3   2   1     1.094712084488   109.49937836   247.01704503
 H      4   2   1     1.088151937632   110.08651746     6.00345640
 H      4   2   1     1.094117960528   109.64918883   245.55767325
 H      4   2   1     1.093519623628   110.67888381   128.04340815

---------------------------
INTERNAL COORDINATES (A.U.)
---------------------------
 O      0   0   0     0.000000000000     0.00000000     0.00000000
 C      1   0   0     2.278450884574     0.00000000     0.00000000
 C      2   1   0     2.846971866506   121.77753124     0.00000000
 C      2   1   3     2.847092220632   121.79621763   180.09356838
 H      3   2   1     2.056423023372   110.12499268     7.24843361
 H      3   2   1     2.066652930813   110.86910057   129.44076220
 H      3   2   1     2.068706035177   109.49937836   247.01704503
 H      4   2   1     2.056309154221   110.08651746     6.00345640
 H      4   2   1     2.067583303602   109.64918883   245.55767325
 H      4   2   1     2.066452610725   110.67888381   128.04340815

---------------------
BASIS SET INFORMATION
---------------------
There are 3 groups of distinct atoms

 Group   1 Type O   : 11s6p2d1f contracted to 5s3p2d1f pattern {62111/411/11/1}
 Group   2 Type C   : 11s6p2d1f contracted to 5s3p2d1f pattern {62111/411/11/1}
 Group   3 Type H   : 5s1p contracted to 3s1p pattern {311/1}

Atom   0O    basis set group =>   1
Atom   1C    basis set group =>   2
Atom   2C    basis set group =>   2
Atom   3C    basis set group =>   2
Atom   4H    basis set group =>   3
Atom   5H    basis set group =>   3
Atom   6H    basis set group =>   3
Atom   7H    basis set group =>   3
Atom   8H    basis set group =>   3
Atom   9H    basis set group =>   3
---------------------------------
AUXILIARY/J BASIS SET INFORMATION
---------------------------------
There are 3 groups of distinct atoms

 Group   1 Type O   : 8s6p5d3f1g contracted to 8s6p4d3f1g pattern {11111111/111111/2111/111/1}
 Group   2 Type C   : 8s6p5d3f1g contracted to 8s6p4d3f1g pattern {11111111/111111/2111/111/1}
 Group   3 Type H   : 4s3p2d contracted to 4s2p1d pattern {1111/21/2}

Atom   0O    basis set group =>   1
Atom   1C    basis set group =>   2
Atom   2C    basis set group =>   2
Atom   3C    basis set group =>   2
Atom   4H    basis set group =>   3
Atom   5H    basis set group =>   3
Atom   6H    basis set group =>   3
Atom   7H    basis set group =>   3
Atom   8H    basis set group =>   3
Atom   9H    basis set group =>   3

Checking for AutoStart:
The File: temp.gbw exists
Trying to determine its content:
     ... Fine, the file contains calculation information
     ... Fine, the calculation information was read
     ... Fine, the file contains a basis set
     ... Fine, the basis set was read
     ... Fine, the file contains a geometry
     ... Fine, the geometry was read
     ... Fine, the file contains a set of orbitals
     ... Fine, the orbitals can be read
     => possible old guess file was deleted
     => GBW file was renamed to GES file
     => GES file is set as startup file
     => Guess is set to MORead
     ... now leaving AutoStart



           ************************************************************
           *        Program running with 26 parallel MPI-processes    *
           *              working on a common directory               *
           ************************************************************
------------------------------------------------------------------------------
                           ORCA GTO INTEGRAL CALCULATION
------------------------------------------------------------------------------

                         BASIS SET STATISTICS AND STARTUP INFO

 # of primitive gaussian shells          ...  116
 # of primitive gaussian functions       ...  232
 # of contracted shells                  ...   68
 # of contracted basis functions         ...  160
 Highest angular momentum                ...    3
 Maximum contraction depth               ...    6
 Integral package used                   ... LIBINT
 Integral threshhold            Thresh   ...  2.500e-11
 Primitive cut-off              TCut     ...  2.500e-12


------------------------------ INTEGRAL EVALUATION ----------------------------


 * One electron integrals 
 Pre-screening matrix                    ... done
 Shell pair data                         ... done (   0.001 sec)

ENUC WAS=  0.000000000


           ************************************************************
           *        Program running with 26 parallel MPI-processes    *
           *              working on a common directory               *
           ************************************************************
------------------------------------------------------------------------------
                            ORCA POINT-CHARGE CORRECTION
------------------------------------------------------------------------------

BaseName                           ... temp
Point charge file                  ... background.crg

Reading the GBW file               ... done
Reading the one-electron matrix    ... done
Reading the point charges          ... done
Number of point charges            ... 882
Reading the nuclear-repulsion      ... done
Charge-Nuclei interaction          ... done
The nuclear repulsion file was updated
Doing the point charge correction  ... done
Storing the one-electron matrix    ... done

ENUC IS = 119.676609015


           ************************************************************
           *        Program running with 26 parallel MPI-processes    *
           *              working on a common directory               *
           ************************************************************
-------------------------------------------------------------------------------
                                 ORCA SCF
-------------------------------------------------------------------------------

------------
SCF SETTINGS
------------
Hamiltonian:
 Density Functional     Method          .... DFT(GTOs)
 Exchange Functional    Exchange        .... PBE
   PBE kappa parameter   XKappa         ....  0.804000
   PBE mue parameter    XMuePBE         ....  0.219520
 Correlation Functional Correlation     .... PBE
   PBE beta parameter  CBetaPBE         ....  0.066725
 LDA part of GGA corr.  LDAOpt          .... PW91-LDA
 Gradients option       PostSCFGGA      .... off
 Hybrid DFT is turned on
   Fraction HF Exchange ScalHFX         ....  0.250000
   Scaling of DF-GGA-X  ScalDFX         ....  0.750000
   Scaling of DF-GGA-C  ScalDFC         ....  1.000000
   Scaling of DF-LDA-C  ScalLDAC        ....  1.000000
   Perturbative correction              ....  0.000000
   Density functional embedding theory  .... OFF
   NL short-range parameter             ....  6.900000


General Settings:
 Integral files         IntName         .... temp
 Hartree-Fock type      HFTyp           .... RHF
 Total Charge           Charge          ....    0
 Multiplicity           Mult            ....    1
 Number of Electrons    NEL             ....   32
 Basis Dimension        Dim             ....  160
 Nuclear Repulsion      ENuc            ....    119.6766090153 Eh

Convergence Acceleration:
 DIIS                   CNVDIIS         .... on
   Start iteration      DIISMaxIt       ....    12
   Startup error        DIISStart       ....  0.200000
   # of expansion vecs  DIISMaxEq       ....     5
   Bias factor          DIISBfac        ....   1.050
   Max. coefficient     DIISMaxC        ....  10.000
 Newton-Raphson         CNVNR           .... off
 SOSCF                  CNVSOSCF        .... on
   Start iteration      SOSCFMaxIt      ....   150
   Startup grad/error   SOSCFStart      ....  0.003300
 Level Shifting         CNVShift        .... on
   Level shift para.    LevelShift      ....    0.2500
   Turn off err/grad.   ShiftErr        ....    0.0010
 Zerner damping         CNVZerner       .... off
 Static damping         CNVDamp         .... on
   Fraction old density DampFac         ....    0.7000
   Max. Damping (<1)    DampMax         ....    0.9800
   Min. Damping (>=0)   DampMin         ....    0.0000
   Turn off err/grad.   DampErr         ....    0.1000
 Fernandez-Rico         CNVRico         .... off

SCF Procedure:
 Maximum # iterations   MaxIter         ....   125
 SCF integral mode      SCFMode         .... Direct
   Integral package                     .... LIBINT
 Reset frequency        DirectResetFreq ....    20
 Integral Threshold     Thresh          ....  2.500e-11 Eh
 Primitive CutOff       TCut            ....  2.500e-12 Eh

Convergence Tolerance:
 Convergence Check Mode ConvCheckMode   .... Total+1el-Energy
 Convergence forced     ConvForced      .... 0
 Energy Change          TolE            ....  1.000e-08 Eh
 1-El. energy change                    ....  1.000e-05 Eh
 Orbital Gradient       TolG            ....  1.000e-05
 Orbital Rotation angle TolX            ....  1.000e-05
 DIIS Error             TolErr          ....  5.000e-07


Diagonalization of the overlap matrix:
Smallest eigenvalue                        ... 3.783e-04
Time for diagonalization                   ...    0.005 sec
Threshold for overlap eigenvalues          ... 1.000e-08
Number of eigenvalues below threshold      ... 0
Time for construction of square roots      ...    0.003 sec
Total time needed                          ...    0.008 sec

---------------------
INITIAL GUESS: MOREAD
---------------------
Guess MOs are being read from file: temp.ges
Input Geometry matches current geometry (good)
Input basis set matches current basis set (good)
MOs were renormalized
MOs were reorthogonalized (Cholesky)
                      ------------------
                      INITIAL GUESS DONE (   0.0 sec)
                      ------------------
-------------------
DFT GRID GENERATION
-------------------

General Integration Accuracy     IntAcc      ...  4.340
Radial Grid Type                 RadialGrid  ... Gauss-Chebyshev
Angular Grid (max. acc.)         AngularGrid ... Lebedev-110
Angular grid pruning method      GridPruning ... 3 (G Style)
Weight generation scheme         WeightScheme... Becke
Basis function cutoff            BFCut       ...    1.0000e-11
Integration weight cutoff        WCut        ...    1.0000e-14
Grids for H and He will be reduced by one unit

# of grid points (after initial pruning)     ...  11448 (   0.0 sec)
# of grid points (after weights+screening)   ...  10880 (   0.0 sec)
nearest neighbour list constructed           ...    0.0 sec
Grid point re-assignment to atoms done       ...    0.0 sec
Grid point division into batches done        ...    0.0 sec
Reduced shell lists constructed in    0.0 sec

Total number of grid points                  ...    10880
Total number of batches                      ...      175
Average number of points per batch           ...       62
Average number of grid points per atom       ...     1088
Average number of shells per batch           ...    30.88 (45.40%)
Average number of basis functions per batch  ...    71.88 (44.92%)
Average number of large shells per batch     ...    22.12 (71.66%)
Average number of large basis fcns per batch ...    50.88 (70.78%)
Maximum spatial batch extension              ...  22.66, 16.57, 14.02 au
Average spatial batch extension              ...   0.53,  0.49,  0.40 au

Time for grid setup =    0.023 sec

--------------
SCF ITERATIONS
--------------
ITER       Energy         Delta-E        Max-DP      RMS-DP      [F,P]     Damp
               ***  Starting incremental Fock matrix formation  ***
                      *** Initiating the SOSCF procedure ***
                      *** Re-Reading the Fockian *** 
                      *** Removing any level shift *** 
ITER      Energy       Delta-E        Grad      Rot      Max-DP    RMS-DP
  0   -193.01720267 -193.0172026723  0.000015  0.000015  0.000049  0.000001
               *** Restarting incremental Fock matrix formation ***
  1   -193.01720267  -0.0000000018  0.000006  0.000010  0.000012  0.000000
  2   -193.01720267   0.0000000008  0.000013  0.000013  0.000016  0.000000
                  ***Gradient check signals convergence***
              ***Rediagonalizing the Fockian in SOSCF/NRSCF***

               *****************************************************
               *                     SUCCESS                       *
               *           SCF CONVERGED AFTER   3 CYCLES          *
               *****************************************************

Setting up the final grid:

General Integration Accuracy     IntAcc      ...  4.670
Radial Grid Type                 RadialGrid  ... Gauss-Chebyshev
Angular Grid (max. acc.)         AngularGrid ... Lebedev-302
Angular grid pruning method      GridPruning ... 3 (G Style)
Weight generation scheme         WeightScheme... Becke
Basis function cutoff            BFCut       ...    1.0000e-11
Integration weight cutoff        WCut        ...    1.0000e-14
Grids for H and He will be reduced by one unit

# of grid points (after initial pruning)     ...  45212 (   0.0 sec)
# of grid points (after weights+screening)   ...  42627 (   0.0 sec)
nearest neighbour list constructed           ...    0.0 sec
Grid point re-assignment to atoms done       ...    0.0 sec
Grid point division into batches done        ...    0.2 sec
Reduced shell lists constructed in    0.2 sec

Total number of grid points                  ...    42627
Total number of batches                      ...      671
Average number of points per batch           ...       63
Average number of grid points per atom       ...     4263
Average number of shells per batch           ...    21.37 (31.43%)
Average number of basis functions per batch  ...    47.22 (29.51%)
Average number of large shells per batch     ...    14.70 (68.80%)
Average number of large basis fcns per batch ...    30.19 (63.92%)
Maximum spatial batch extension              ...  14.75, 15.65, 14.54 au
Average spatial batch extension              ...   0.33,  0.30,  0.28 au

Final grid set up in    0.2 sec
Final integration                            ... done (   0.0 sec)
Change in XC energy                          ...     0.000365650
Integrated number of electrons               ...    32.000022454
Previous integrated no of electrons          ...    32.001983923

----------------
TOTAL SCF ENERGY
----------------

Total Energy       :         -193.01683702 Eh           -5252.25515 eV

Components:
Nuclear Repulsion  :          119.67660902 Eh            3256.56609 eV
Electronic Energy  :         -312.69344604 Eh           -8508.82125 eV
One Electron Energy:         -498.26620373 Eh          -13558.51270 eV
Two Electron Energy:          185.57275769 Eh            5049.69146 eV

Virial components:
Potential Energy   :         -385.14374159 Eh          -10480.29402 eV
Kinetic Energy     :          192.12690457 Eh            5228.03886 eV
Virial Ratio       :            2.00463200


DFT components:
N(Alpha)           :       16.000011226755 electrons
N(Beta)            :       16.000011226755 electrons
N(Total)           :       32.000022453511 electrons
E(X)               :      -19.371294516381 Eh       
E(C)               :       -1.042560253449 Eh       
E(XC)              :      -20.413854769830 Eh       
DFET-embed. en.    :        0.000000000000 Eh       

---------------
SCF CONVERGENCE
---------------

  Last Energy change         ...   -1.1271e-09  Tolerance :   1.0000e-08
  Last MAX-Density change    ...    1.4940e-06  Tolerance :   1.0000e-07
  Last RMS-Density change    ...    4.2329e-08  Tolerance :   5.0000e-09
  Last Orbital Gradient      ...    4.2315e-07  Tolerance :   1.0000e-05
  Last Orbital Rotation      ...    7.8698e-07  Tolerance :   1.0000e-05

             **** THE GBW FILE WAS UPDATED (temp.gbw) ****
             **** DENSITY FILE WAS UPDATED (temp.scfp) ****
             **** ENERGY FILE WAS UPDATED (temp.en.tmp) ****
             **** THE GBW FILE WAS UPDATED (temp.gbw) ****
             **** DENSITY FILE WAS UPDATED (temp.scfp) ****
----------------
ORBITAL ENERGIES
----------------

  NO   OCC          E(Eh)            E(eV) 
   0   2.0000     -19.189918      -522.1842 
   1   2.0000     -10.310938      -280.5749 
   2   2.0000     -10.213153      -277.9140 
   3   2.0000     -10.211357      -277.8652 
   4   2.0000      -1.074031       -29.2259 
   5   2.0000      -0.785771       -21.3819 
   6   2.0000      -0.722310       -19.6550 
   7   2.0000      -0.545143       -14.8341 
   8   2.0000      -0.471194       -12.8218 
   9   2.0000      -0.469275       -12.7696 
  10   2.0000      -0.465389       -12.6639 
  11   2.0000      -0.404181       -10.9983 
  12   2.0000      -0.403270       -10.9735 
  13   2.0000      -0.379745       -10.3334 
  14   2.0000      -0.365454        -9.9445 
  15   2.0000      -0.261479        -7.1152 
  16   0.0000      -0.008389        -0.2283 
  17   0.0000       0.055788         1.5181 
  18   0.0000       0.107690         2.9304 
  19   0.0000       0.125799         3.4232 
  20   0.0000       0.130658         3.5554 
  21   0.0000       0.149499         4.0681 
  22   0.0000       0.159995         4.3537 
  23   0.0000       0.161369         4.3911 
  24   0.0000       0.178094         4.8462 
  25   0.0000       0.205519         5.5925 
  26   0.0000       0.219565         5.9747 
  27   0.0000       0.238362         6.4862 
  28   0.0000       0.247545         6.7360 
  29   0.0000       0.316625         8.6158 
  30   0.0000       0.318524         8.6675 
  31   0.0000       0.327077         8.9002 
  32   0.0000       0.389454        10.5976 
  33   0.0000       0.392270        10.6742 
  34   0.0000       0.423325        11.5193 
  35   0.0000       0.430392        11.7116 
  36   0.0000       0.442228        12.0336 
  37   0.0000       0.455950        12.4070 
  38   0.0000       0.462408        12.5828 
  39   0.0000       0.481641        13.1061 
  40   0.0000       0.485201        13.2030 
  41   0.0000       0.513413        13.9707 
  42   0.0000       0.547719        14.9042 
  43   0.0000       0.589524        16.0418 
  44   0.0000       0.600713        16.3462 
  45   0.0000       0.632554        17.2127 
  46   0.0000       0.677344        18.4315 
  47   0.0000       0.681088        18.5334 
  48   0.0000       0.744084        20.2476 
  49   0.0000       0.807867        21.9832 
  50   0.0000       0.841289        22.8926 
  51   0.0000       0.847129        23.0515 
  52   0.0000       0.921860        25.0851 
  53   0.0000       0.958880        26.0925 
  54   0.0000       0.992948        27.0195 
  55   0.0000       0.998996        27.1841 
  56   0.0000       1.015008        27.6198 
  57   0.0000       1.070070        29.1181 
  58   0.0000       1.124662        30.6036 
  59   0.0000       1.126298        30.6481 
  60   0.0000       1.150053        31.2945 
  61   0.0000       1.245632        33.8954 
  62   0.0000       1.402394        38.1611 
  63   0.0000       1.421042        38.6685 
  64   0.0000       1.457884        39.6710 
  65   0.0000       1.517324        41.2885 
  66   0.0000       1.523103        41.4458 
  67   0.0000       1.535855        41.7927 
  68   0.0000       1.540528        41.9199 
  69   0.0000       1.549781        42.1717 
  70   0.0000       1.578303        42.9478 
  71   0.0000       1.582149        43.0525 
  72   0.0000       1.598647        43.5014 
  73   0.0000       1.647341        44.8264 
  74   0.0000       1.668439        45.4005 
  75   0.0000       1.721446        46.8429 
  76   0.0000       1.861457        50.6528 
  77   0.0000       1.882963        51.2380 
  78   0.0000       1.891504        51.4704 
  79   0.0000       1.969676        53.5976 
  80   0.0000       2.016649        54.8758 
  81   0.0000       2.040117        55.5144 
  82   0.0000       2.057622        55.9907 
  83   0.0000       2.104051        57.2541 
  84   0.0000       2.130985        57.9871 
  85   0.0000       2.178000        59.2664 
  86   0.0000       2.185225        59.4630 
  87   0.0000       2.215626        60.2903 
  88   0.0000       2.227136        60.6035 
  89   0.0000       2.343334        63.7653 
  90   0.0000       2.364988        64.3546 
  91   0.0000       2.365997        64.3820 
  92   0.0000       2.410765        65.6002 
  93   0.0000       2.467799        67.1522 
  94   0.0000       2.489271        67.7365 
  95   0.0000       2.534521        68.9678 
  96   0.0000       2.544063        69.2275 
  97   0.0000       2.575646        70.0869 
  98   0.0000       2.577288        70.1316 
  99   0.0000       2.671245        72.6883 
 100   0.0000       2.716915        73.9310 
 101   0.0000       2.768712        75.3405 
 102   0.0000       2.801679        76.2376 
 103   0.0000       2.824937        76.8704 
 104   0.0000       2.863043        77.9074 
 105   0.0000       2.920269        79.4646 
 106   0.0000       2.985283        81.2337 
 107   0.0000       2.993095        81.4462 
 108   0.0000       3.016421        82.0810 
 109   0.0000       3.086829        83.9969 
 110   0.0000       3.088307        84.0371 
 111   0.0000       3.112204        84.6874 
 112   0.0000       3.124786        85.0298 
 113   0.0000       3.139228        85.4227 
 114   0.0000       3.157506        85.9201 
 115   0.0000       3.242229        88.2255 
 116   0.0000       3.304419        89.9178 
 117   0.0000       3.315794        90.2273 
 118   0.0000       3.328484        90.5727 
 119   0.0000       3.387243        92.1716 
 120   0.0000       3.397311        92.4455 
 121   0.0000       3.436385        93.5088 
 122   0.0000       3.466567        94.3301 
 123   0.0000       3.505223        95.3820 
 124   0.0000       3.539914        96.3260 
 125   0.0000       3.556900        96.7882 
 126   0.0000       3.689482       100.3959 
 127   0.0000       3.778569       102.8201 
 128   0.0000       3.875241       105.4507 
 129   0.0000       3.878387       105.5363 
 130   0.0000       3.913817       106.5004 
 131   0.0000       3.993854       108.6783 
 132   0.0000       4.000256       108.8525 
 133   0.0000       4.023123       109.4747 
 134   0.0000       4.079407       111.0063 
 135   0.0000       4.339094       118.0727 
 136   0.0000       4.381004       119.2132 
 137   0.0000       4.399827       119.7254 
 138   0.0000       4.416917       120.1904 
 139   0.0000       4.460718       121.3823 
 140   0.0000       4.543654       123.6391 
 141   0.0000       4.678228       127.3010 
 142   0.0000       4.785752       130.2269 
 143   0.0000       4.801271       130.6492 
 144   0.0000       5.207250       141.6965 
 145   0.0000       5.212445       141.8378 
 146   0.0000       5.621047       152.9565 
 147   0.0000       5.703728       155.2063 
 148   0.0000       6.168463       167.8524 
 149   0.0000       6.365850       173.2236 
 150   0.0000       6.407606       174.3598 
 151   0.0000       6.531942       177.7432 
 152   0.0000       6.558519       178.4664 
 153   0.0000       6.825475       185.7306 
 154   0.0000       7.012698       190.8252 
 155   0.0000       7.093063       193.0120 
 156   0.0000      22.404447       609.6560 
 157   0.0000      22.419125       610.0554 
 158   0.0000      23.062668       627.5671 
 159   0.0000      43.929349      1195.3783 

                    ********************************
                    * MULLIKEN POPULATION ANALYSIS *
                    ********************************

-----------------------
MULLIKEN ATOMIC CHARGES
-----------------------
   0 O :   -0.384049
   1 C :    0.208194
   2 C :   -0.387400
   3 C :   -0.313617
   4 H :    0.175052
   5 H :    0.148471
   6 H :    0.140814
   7 H :    0.144838
   8 H :    0.116040
   9 H :    0.151657
Sum of atomic charges:   -0.0000000

--------------------------------
MULLIKEN REDUCED ORBITAL CHARGES
--------------------------------
  0 O s       :     3.802146  s :     3.802146
      pz      :     1.504094  p :     4.549639
      px      :     1.524520
      py      :     1.521025
      dz2     :     0.008627  d :     0.030381
      dxz     :     0.007728
      dyz     :     0.007865
      dx2y2   :     0.003347
      dxy     :     0.002815
      f0      :     0.000394  f :     0.001884
      f+1     :     0.000390
      f-1     :     0.000281
      f+2     :     0.000427
      f-2     :     0.000311
      f+3     :     0.000045
      f-3     :     0.000034
  1 C s       :     3.190911  s :     3.190911
      pz      :     0.831043  p :     2.373223
      px      :     0.784601
      py      :     0.757579
      dz2     :     0.065863  d :     0.209633
      dxz     :     0.038885
      dyz     :     0.050076
      dx2y2   :     0.026164
      dxy     :     0.028644
      f0      :     0.005182  f :     0.018038
      f+1     :     0.002851
      f-1     :     0.002214
      f+2     :     0.002011
      f-2     :     0.003652
      f+3     :     0.001217
      f-3     :     0.000910
  2 C s       :     3.218436  s :     3.218436
      pz      :     0.972868  p :     3.120294
      px      :     1.083871
      py      :     1.063555
      dz2     :     0.009812  d :     0.045530
      dxz     :     0.011045
      dyz     :     0.011748
      dx2y2   :     0.004736
      dxy     :     0.008189
      f0      :     0.000892  f :     0.003140
      f+1     :     0.000498
      f-1     :     0.000653
      f+2     :     0.000097
      f-2     :     0.000512
      f+3     :     0.000231
      f-3     :     0.000257
  3 C s       :     3.164573  s :     3.164573
      pz      :     1.090199  p :     3.100717
      px      :     0.999227
      py      :     1.011291
      dz2     :     0.007482  d :     0.045220
      dxz     :     0.006963
      dyz     :     0.013440
      dx2y2   :     0.008235
      dxy     :     0.009100
      f0      :     0.000567  f :     0.003107
      f+1     :     0.000130
      f-1     :     0.000705
      f+2     :     0.000025
      f-2     :     0.000562
      f+3     :     0.000399
      f-3     :     0.000719
  4 H s       :     0.803272  s :     0.803272
      pz      :     0.004086  p :     0.021676
      px      :     0.008747
      py      :     0.008843
  5 H s       :     0.830142  s :     0.830142
      pz      :     0.006409  p :     0.021387
      px      :     0.009451
      py      :     0.005527
  6 H s       :     0.837722  s :     0.837722
      pz      :     0.007648  p :     0.021465
      px      :     0.005488
      py      :     0.008329
  7 H s       :     0.833412  s :     0.833412
      pz      :     0.011931  p :     0.021750
      px      :     0.004266
      py      :     0.005554
  8 H s       :     0.862315  s :     0.862315
      pz      :     0.004767  p :     0.021645
      px      :     0.010814
      py      :     0.006064
  9 H s       :     0.826880  s :     0.826880
      pz      :     0.007844  p :     0.021463
      px      :     0.004606
      py      :     0.009014


                     *******************************
                     * LOEWDIN POPULATION ANALYSIS *
                     *******************************

----------------------
LOEWDIN ATOMIC CHARGES
----------------------
   0 O :    0.079228
   1 C :   -0.382098
   2 C :   -0.272808
   3 C :   -0.263499
   4 H :    0.138958
   5 H :    0.141602
   6 H :    0.141221
   7 H :    0.136266
   8 H :    0.139716
   9 H :    0.141415

-------------------------------
LOEWDIN REDUCED ORBITAL CHARGES
-------------------------------
  0 O s       :     3.395771  s :     3.395771
      pz      :     1.548083  p :     4.450302
      px      :     1.475427
      py      :     1.426791
      dz2     :     0.024353  d :     0.068545
      dxz     :     0.019031
      dyz     :     0.012776
      dx2y2   :     0.004507
      dxy     :     0.007878
      f0      :     0.001581  f :     0.006154
      f+1     :     0.001664
      f-1     :     0.000689
      f+2     :     0.000772
      f-2     :     0.001108
      f+3     :     0.000109
      f-3     :     0.000231
  1 C s       :     2.778090  s :     2.778090
      pz      :     1.003014  p :     2.693148
      px      :     0.877161
      py      :     0.812973
      dz2     :     0.253228  d :     0.797029
      dxz     :     0.178346
      dyz     :     0.164048
      dx2y2   :     0.092699
      dxy     :     0.108708
      f0      :     0.032883  f :     0.113831
      f+1     :     0.018961
      f-1     :     0.011346
      f+2     :     0.015132
      f-2     :     0.024168
      f+3     :     0.005675
      f-3     :     0.005666
  2 C s       :     2.836960  s :     2.836960
      pz      :     1.050513  p :     3.192403
      px      :     1.072979
      py      :     1.068912
      dz2     :     0.053155  d :     0.220593
      dxz     :     0.047302
      dyz     :     0.057013
      dx2y2   :     0.013590
      dxy     :     0.049533
      f0      :     0.005947  f :     0.022851
      f+1     :     0.003993
      f-1     :     0.004129
      f+2     :     0.003127
      f-2     :     0.002486
      f+3     :     0.001519
      f-3     :     0.001650
  3 C s       :     2.835443  s :     2.835443
      pz      :     1.075623  p :     3.184338
      px      :     1.051870
      py      :     1.056845
      dz2     :     0.038353  d :     0.220829
      dxz     :     0.025659
      dyz     :     0.060427
      dx2y2   :     0.039794
      dxy     :     0.056597
      f0      :     0.003015  f :     0.022889
      f+1     :     0.002753
      f-1     :     0.002631
      f+2     :     0.002745
      f-2     :     0.003696
      f+3     :     0.003175
      f-3     :     0.004874
  4 H s       :     0.797515  s :     0.797515
      pz      :     0.012223  p :     0.063527
      px      :     0.025440
      py      :     0.025864
  5 H s       :     0.795349  s :     0.795349
      pz      :     0.017461  p :     0.063050
      px      :     0.029306
      py      :     0.016283
  6 H s       :     0.795951  s :     0.795951
      pz      :     0.020916  p :     0.062828
      px      :     0.016241
      py      :     0.025671
  7 H s       :     0.800689  s :     0.800689
      pz      :     0.034805  p :     0.063045
      px      :     0.012379
      py      :     0.015861
  8 H s       :     0.797844  s :     0.797844
      pz      :     0.014602  p :     0.062441
      px      :     0.029290
      py      :     0.018549
  9 H s       :     0.795499  s :     0.795499
      pz      :     0.024173  p :     0.063086
      px      :     0.013752
      py      :     0.025161


                      *****************************
                      * MAYER POPULATION ANALYSIS *
                      *****************************

  NA   - Mulliken gross atomic population
  ZA   - Total nuclear charge
  QA   - Mulliken gross atomic charge
  VA   - Mayer's total valence
  BVA  - Mayer's bonded valence
  FA   - Mayer's free valence

  ATOM       NA         ZA         QA         VA         BVA        FA
  0 O      8.3840     8.0000    -0.3840     2.0765     2.0765    -0.0000
  1 C      5.7918     6.0000     0.2082     4.1430     4.1430    -0.0000
  2 C      6.3874     6.0000    -0.3874     3.7651     3.7651    -0.0000
  3 C      6.3136     6.0000    -0.3136     3.7773     3.7773    -0.0000
  4 H      0.8249     1.0000     0.1751     0.9763     0.9763    -0.0000
  5 H      0.8515     1.0000     0.1485     0.9697     0.9697    -0.0000
  6 H      0.8592     1.0000     0.1408     0.9750     0.9750     0.0000
  7 H      0.8552     1.0000     0.1448     0.9950     0.9950    -0.0000
  8 H      0.8840     1.0000     0.1160     0.9801     0.9801    -0.0000
  9 H      0.8483     1.0000     0.1517     0.9624     0.9624     0.0000

  Mayer bond orders larger than 0.100000
B(  0-O ,  1-C ) :   2.0508 B(  1-C ,  2-C ) :   0.9979 B(  1-C ,  3-C ) :   1.0228 
B(  2-C ,  4-H ) :   0.9595 B(  2-C ,  5-H ) :   0.9375 B(  2-C ,  6-H ) :   0.9367 
B(  3-C ,  7-H ) :   0.9616 B(  3-C ,  8-H ) :   0.9283 B(  3-C ,  9-H ) :   0.9396 


-------
TIMINGS
-------

Total SCF time: 0 days 0 hours 0 min 1 sec 

Total time                  ....       1.750 sec
Sum of individual times     ....       1.480 sec  ( 84.6%)

Fock matrix formation       ....       1.206 sec  ( 68.9%)
  XC integration            ....       0.088 sec  (  7.3% of F)
    Basis function eval.    ....       0.012 sec  ( 13.7% of XC)
    Density eval.           ....       0.012 sec  ( 14.2% of XC)
    XC-Functional eval.     ....       0.003 sec  (  3.5% of XC)
    XC-Potential eval.      ....       0.021 sec  ( 24.1% of XC)
Diagonalization             ....       0.005 sec  (  0.3%)
Density matrix formation    ....       0.004 sec  (  0.2%)
Population analysis         ....       0.011 sec  (  0.6%)
Initial guess               ....       0.008 sec  (  0.5%)
Orbital Transformation      ....       0.000 sec  (  0.0%)
Orbital Orthonormalization  ....       0.005 sec  (  0.3%)
DIIS solution               ....       0.001 sec  (  0.1%)
SOSCF solution              ....       0.010 sec  (  0.6%)
Grid generation             ....       0.235 sec  ( 13.4%)

-------------------------   --------------------
FINAL SINGLE POINT ENERGY      -193.016837024434
-------------------------   --------------------


                            ***************************************
                            *     ORCA property calculations      *
                            ***************************************

                                    ---------------------
                                    Active property flags
                                    ---------------------
   (+) Dipole Moment


------------------------------------------------------------------------------
                       ORCA ELECTRIC PROPERTIES CALCULATION
------------------------------------------------------------------------------

Dipole Moment Calculation                       ... on
Quadrupole Moment Calculation                   ... off
Polarizability Calculation                      ... off
GBWName                                         ... temp.gbw
Electron density file                           ... temp.scfp
The origin for moment calculation is the CENTER OF MASS  = ( 0.726504, 17.714581  3.869860)

-------------
DIPOLE MOMENT
-------------
                                X             Y             Z
Electronic contribution:     -1.80531       0.99270       2.97318
Nuclear contribution   :      2.66034      -1.30800      -4.10118
                        -----------------------------------------
Total Dipole Moment    :      0.85503      -0.31530      -1.12800
                        -----------------------------------------
Magnitude (a.u.)       :      1.45013
Magnitude (Debye)      :      3.68594



--------------------
Rotational spectrum 
--------------------
 
Rotational constants in cm-1:     0.341603     0.286936     0.165457 
Rotational constants in MHz : 10240.987412  8602.118984  4960.288053 

 Dipole components along the rotational axes: 
x,y,z [a.u.] :    -0.043749    -1.445314    -0.109676 
x,y,z [Debye]:    -0.111202    -3.673697    -0.278774 

 

Timings for individual modules:

Sum of individual times         ...        3.181 sec (=   0.053 min)
GTO integral calculation        ...        0.892 sec (=   0.015 min)  28.1 %
SCF iterations                  ...        2.289 sec (=   0.038 min)  71.9 %
                             ****ORCA TERMINATED NORMALLY****
TOTAL RUN TIME: 0 days 0 hours 0 minutes 4 seconds 566 msec
