[Molden Format]
[Title]
 Molden file created by orca_2mkl for BaseName=temp

[Atoms] AU
O    1   8         -0.5739060474        18.3506788420         5.8692663843 
C    2   6          0.6272492367        17.7643402863         4.0240640878 
C    3   6          0.0384502576        18.8303914902         1.4507200763 
C    4   6          2.7945666911        15.9236582147         4.1674470582 
H    5   1         -1.3875597597        20.3040471726         1.6047006309 
H    6   1          1.7441888757        19.5799060078         0.5564393088 
H    7   1         -0.6662626328        17.3218231175         0.2230613831 
H    8   1          2.9197364810        15.1260085931         6.0586093840 
H    9   1          4.5623847024        16.8943160434         3.7118775510 
H   10   1          2.5656433775        14.4167093373         2.7721243035 
[GTO]
  1 0
s   6 1.0 
    27032.3800000000         0.8598581393
     4052.3870000000         1.6055304059
      922.3272000000         2.7458780898
      261.2407000000         4.2987677378
       85.3546400000         5.8797670930
       31.0350400000         6.3163984679
s   2 1.0 
       12.2608600000         2.9812145398
        4.9987080000         0.9419560379
s   1 1.0 
        1.1703110000         0.8019292557
s   1 1.0 
        0.4647474000         0.4011647998
s   1 1.0 
        0.1850454000         0.2010799703
p   4 1.0 
       63.2749500000         3.0572013698
       14.6270500000         3.3844845670
        4.4501220000         2.9474258212
        1.5275800000         1.7118271901
p   1 1.0 
        0.5293512000         0.6436058239
p   1 1.0 
        0.1747842000         0.1610897108
d   1 1.0 
        2.3140000000        12.3767310624
d   1 1.0 
        0.6450000000         1.3234257612
f   1 1.0 
        1.4280000000        12.7097950062

  2 0
s   6 1.0 
    13575.3500000000         0.5435905009
     2035.2330000000         1.0145543008
      463.2256000000         1.7315731015
      131.2002000000         2.6910371555
       42.8530200000         3.6044547316
       15.5841900000         3.7025565440
s   2 1.0 
        6.2067140000         1.8383540114
        2.5764900000         0.5447576606
s   1 1.0 
        0.5769634000         0.4718145074
s   1 1.0 
        0.2297283000         0.2364944571
s   1 1.0 
        0.0951644400         0.1221141848
p   4 1.0 
       34.6972300000         1.3596652360
        7.9582620000         1.4512590746
        2.3780830000         1.2709231872
        0.8143321000         0.8025721831
p   1 1.0 
        0.2888755000         0.3018759228
p   1 1.0 
        0.1005682000         0.0807264648
d   1 1.0 
        1.0970000000         3.3522135855
d   1 1.0 
        0.3180000000         0.3838994974
f   1 1.0 
        0.7610000000         3.0840084332

  3 0
s   6 1.0 
    13575.3500000000         0.5435905009
     2035.2330000000         1.0145543008
      463.2256000000         1.7315731015
      131.2002000000         2.6910371555
       42.8530200000         3.6044547316
       15.5841900000         3.7025565440
s   2 1.0 
        6.2067140000         1.8383540114
        2.5764900000         0.5447576606
s   1 1.0 
        0.5769634000         0.4718145074
s   1 1.0 
        0.2297283000         0.2364944571
s   1 1.0 
        0.0951644400         0.1221141848
p   4 1.0 
       34.6972300000         1.3596652360
        7.9582620000         1.4512590746
        2.3780830000         1.2709231872
        0.8143321000         0.8025721831
p   1 1.0 
        0.2888755000         0.3018759228
p   1 1.0 
        0.1005682000         0.0807264648
d   1 1.0 
        1.0970000000         3.3522135855
d   1 1.0 
        0.3180000000         0.3838994974
f   1 1.0 
        0.7610000000         3.0840084332

  4 0
s   6 1.0 
    13575.3500000000         0.5435905009
     2035.2330000000         1.0145543008
      463.2256000000         1.7315731015
      131.2002000000         2.6910371555
       42.8530200000         3.6044547316
       15.5841900000         3.7025565440
s   2 1.0 
        6.2067140000         1.8383540114
        2.5764900000         0.5447576606
s   1 1.0 
        0.5769634000         0.4718145074
s   1 1.0 
        0.2297283000         0.2364944571
s   1 1.0 
        0.0951644400         0.1221141848
p   4 1.0 
       34.6972300000         1.3596652360
        7.9582620000         1.4512590746
        2.3780830000         1.2709231872
        0.8143321000         0.8025721831
p   1 1.0 
        0.2888755000         0.3018759228
p   1 1.0 
        0.1005682000         0.0807264648
d   1 1.0 
        1.0970000000         3.3522135855
d   1 1.0 
        0.3180000000         0.3838994974
f   1 1.0 
        0.7610000000         3.0840084332

  5 0
s   3 1.0 
       34.0613400000         0.2556298765
        5.1235750000         0.4613598729
        1.1646630000         0.6811216893
s   1 1.0 
        0.3272304000         0.3083545241
s   1 1.0 
        0.1030724000         0.1296483171
p   1 1.0 
        0.8000000000         1.0784563492

  6 0
s   3 1.0 
       34.0613400000         0.2556298765
        5.1235750000         0.4613598729
        1.1646630000         0.6811216893
s   1 1.0 
        0.3272304000         0.3083545241
s   1 1.0 
        0.1030724000         0.1296483171
p   1 1.0 
        0.8000000000         1.0784563492

  7 0
s   3 1.0 
       34.0613400000         0.2556298765
        5.1235750000         0.4613598729
        1.1646630000         0.6811216893
s   1 1.0 
        0.3272304000         0.3083545241
s   1 1.0 
        0.1030724000         0.1296483171
p   1 1.0 
        0.8000000000         1.0784563492

  8 0
s   3 1.0 
       34.0613400000         0.2556298765
        5.1235750000         0.4613598729
        1.1646630000         0.6811216893
s   1 1.0 
        0.3272304000         0.3083545241
s   1 1.0 
        0.1030724000         0.1296483171
p   1 1.0 
        0.8000000000         1.0784563492

  9 0
s   3 1.0 
       34.0613400000         0.2556298765
        5.1235750000         0.4613598729
        1.1646630000         0.6811216893
s   1 1.0 
        0.3272304000         0.3083545241
s   1 1.0 
        0.1030724000         0.1296483171
p   1 1.0 
        0.8000000000         1.0784563492

 10 0
s   3 1.0 
       34.0613400000         0.2556298765
        5.1235750000         0.4613598729
        1.1646630000         0.6811216893
s   1 1.0 
        0.3272304000         0.3083545241
s   1 1.0 
        0.1030724000         0.1296483171
p   1 1.0 
        0.8000000000         1.0784563492

[5D]
[7F]
[9G]
[MO]
 Sym=     1a
 Ene= -1.91899175816461E+01
 Spin= Alpha
 Occup= 2.000000
  1      -0.435383798619
  2      -0.639606569334
  3      -0.034926946392
  4       0.028871627650
  5      -0.010080080843
  6      -0.001075996500
  7       0.000571791114
  8       0.001752813862
  9       0.003303778833
 10      -0.001641320461
 11      -0.005146357296
 12      -0.000245964491
 13       0.000134564645
 14       0.000410267677
 15      -0.000136639024
 16       0.000250143458
 17      -0.000144671437
 18      -0.000054811126
 19       0.000019405534
 20       0.000709876735
 21      -0.001155330300
 22       0.000611732907
 23       0.000261028294
 24      -0.000251092378
 25      -0.000024733409
 26       0.000133857454
 27      -0.000060822439
 28      -0.000059840794
 29       0.000080493454
 30      -0.000003211193
 31       0.000032168405
 32      -0.000043330793
 33       0.000259910667
 34      -0.000765344462
 35      -0.004357298217
 36       0.001399345161
 37       0.000346679136
 38      -0.000167009033
 39      -0.000529823628
 40       0.004522311618
 41      -0.002206336180
 42      -0.006948495430
 43      -0.002709939914
 44       0.001305435913
 45       0.004109359056
 46      -0.000193033588
 47       0.000257584334
 48      -0.000116684431
 49      -0.000084105633
 50       0.000124427418
 51      -0.002045613413
 52       0.003738376258
 53      -0.002106573827
 54      -0.000759334660
 55       0.000382755898
 56      -0.000114838913
 57      -0.000036620230
 58       0.000134764834
 59      -0.000022780744
 60       0.000095226618
 61       0.000051454243
 62       0.000143031602
 63      -0.000017623538
 64       0.000084725338
 65      -0.000351802268
 66      -0.001188018381
 67       0.001873265354
 68      -0.000004168759
 69       0.000005608929
 70      -0.000197555119
 71      -0.000282929547
 72       0.000826915927
 73      -0.000551362704
 74       0.000694073846
 75      -0.000521126664
 76       0.000023661412
 77      -0.000084717155
 78       0.000009792851
 79       0.000038177438
 80      -0.000016373154
 81       0.000060989514
 82      -0.000515467768
 83      -0.000190535571
 84       0.000020527415
 85       0.000201961443
 86      -0.001179590158
 87      -0.000087149404
 88      -0.000059858537
 89       0.000038143221
 90       0.000012555685
 91      -0.000081639944
 92       0.000052319466
 93       0.000043277027
 94      -0.000017616293
 95       0.000084708141
 96      -0.000349661294
 97      -0.001176425507
 98       0.001867445583
 99       0.000164479476
100      -0.000090128402
101      -0.000057648056
102       0.000400566011
103      -0.000810743684
104       0.000442077639
105      -0.000179020299
106       0.000297396519
107      -0.000783767315
108      -0.000009844907
109       0.000024468626
110       0.000002694580
111      -0.000025137297
112       0.000105660397
113       0.001088948350
114       0.000165761309
115      -0.000671460825
116      -0.000104766986
117      -0.000242017314
118       0.000032065117
119      -0.000096120291
120       0.000086609370
121       0.000021657436
122       0.000069913782
123      -0.000027493141
124       0.000017501829
125      -0.000128663712
126      -0.001069129971
127       0.000161321512
128      -0.000109978477
129       0.000171876271
130      -0.000052204086
131      -0.000000382020
132       0.000491115872
133      -0.000361895510
134      -0.000095044204
135       0.000076665026
136       0.000146950132
137       0.000061271501
138       0.000895661615
139      -0.000413766785
140      -0.000019860490
141       0.000101878665
142       0.000188124813
143      -0.000129534909
144      -0.001074641634
145       0.000163524731
146       0.000051981105
147      -0.000133041870
148       0.000154225556
149       0.000054951185
150       0.000862925894
151      -0.000404239643
152      -0.000172027807
153       0.000001240403
154       0.000126452776
155       0.000005788503
156       0.000552340299
157      -0.000356342948
158      -0.000101141061
159       0.000034824686
160       0.000163849744
 Sym=     1a
 Ene= -1.03109379231529E+01
 Spin= Alpha
 Occup= 2.000000
  1      -0.000084833188
  2      -0.000355482472
  3       0.003605514432
  4      -0.014863216515
  5       0.000132990076
  6       0.000357225155
  7      -0.000173656001
  8      -0.000547594032
  9      -0.004544878647
 10       0.002217628361
 11       0.006978722882
 12      -0.000090413662
 13       0.000041816962
 14       0.000139436445
 15      -0.000025061557
 16      -0.000049791911
 17       0.000079587140
 18      -0.000004584422
 19       0.000117981165
 20      -0.001368180930
 21       0.002451236250
 22      -0.001417951778
 23      -0.000538594717
 24       0.000236795801
 25       0.000015146946
 26      -0.000451443403
 27       0.000272139954
 28       0.000190070370
 29      -0.000209079482
 30       0.000044437003
 31      -0.000029415812
 32       0.467185607990
 33       0.608421504260
 34       0.038277120529
 35      -0.023617123697
 36       0.017969897861
 37      -0.000487687446
 38       0.000273799038
 39       0.000764012588
 40      -0.007835487013
 41       0.003792369993
 42       0.012058538928
 43       0.003336487811
 44      -0.001609042320
 45      -0.005089508129
 46       0.001114934839
 47      -0.001217251849
 48       0.000305318162
 49       0.000410008377
 50      -0.001105824995
 51       0.002231012003
 52      -0.005905535017
 53       0.004383563318
 54       0.000930447495
 55       0.001817413691
 56       0.000258379322
 57      -0.001290993012
 58       0.000576279264
 59       0.000599996567
 60      -0.000804135631
 61       0.000036484671
 62      -0.000347038963
 63       0.000616951807
 64       0.000910067116
 65      -0.000918064881
 66       0.008495781790
 67      -0.007752937114
 68       0.000077915985
 69      -0.000063823497
 70      -0.000013771837
 71       0.000142914589
 72      -0.001192545256
 73       0.004758357849
 74      -0.001071698931
 75       0.000971964911
 76      -0.002304341050
 77      -0.000108060715
 78      -0.000011817631
 79       0.000036994848
 80       0.000018452391
 81      -0.000017366226
 82       0.000974599965
 83      -0.000387492557
 84       0.000090724012
 85      -0.000049307369
 86       0.000436440710
 87      -0.000280019707
 88      -0.000424095034
 89       0.000572489369
 90       0.000165405016
 91       0.000123641360
 92      -0.000135442802
 93      -0.000067287018
 94       0.000605332102
 95       0.000895337461
 96      -0.000915635478
 97       0.008453687199
 98      -0.007756716798
 99      -0.000006951106
100       0.000026337894
101      -0.000097964954
102      -0.003765321347
103       0.002983611212
104       0.000873855015
105       0.002147111453
106      -0.001570247719
107       0.000558828669
108       0.000070361682
109       0.000034001441
110      -0.000023946196
111      -0.000025291600
112       0.000080791598
113      -0.000431049783
114      -0.000723688765
115       0.000627314415
116       0.000248095163
117      -0.000353251363
118      -0.000043318032
119      -0.000481320663
120       0.000256351712
121       0.000074451572
122      -0.000209178599
123       0.000322962567
124       0.000444972926
125       0.000006616903
126      -0.000238364053
127       0.000421096861
128       0.000001005431
129       0.000041124933
130      -0.000364053108
131       0.000022918757
132      -0.000475385294
133       0.000130135320
134      -0.000095992079
135       0.000046634614
136      -0.000229546681
137      -0.000034559224
138      -0.000503038637
139      -0.000379999881
140      -0.000017631115
141       0.000128786602
142      -0.000217330973
143       0.000005621640
144      -0.000235910608
145       0.000431981401
146       0.000295098460
147      -0.000190278495
148      -0.000099071668
149      -0.000030871224
150      -0.000507481710
151      -0.000343534121
152       0.000160315496
153      -0.000199908202
154       0.000001298114
155       0.000018704314
156      -0.000467257695
157       0.000073194448
158       0.000223369888
159      -0.000107365533
160       0.000029614994
 Sym=     1a
 Ene= -1.02131525594879E+01
 Spin= Alpha
 Occup= 2.000000
  1       0.000004631575
  2      -0.000053995402
  3       0.000616191541
  4      -0.002604275817
  5       0.000705468080
  6      -0.000031033605
  7       0.000068559088
  8      -0.000142072812
  9       0.000082827913
 10      -0.000385598947
 11       0.001207058433
 12      -0.000438476043
 13       0.000446063579
 14       0.000029789859
 15       0.000038748038
 16      -0.000005016451
 17       0.000000627752
 18      -0.000004096644
 19       0.000032742325
 20      -0.000300541981
 21      -0.000020357767
 22       0.000081090585
 23       0.000039509301
 24      -0.000162352967
 25       0.000004990135
 26       0.000049357696
 27      -0.000030266815
 28      -0.000010384893
 29       0.000019380624
 30      -0.000026206237
 31      -0.000034229812
 32      -0.000685514771
 33      -0.000801790757
 34       0.000014770814
 35       0.002620372904
 36      -0.009352205190
 37      -0.000233170649
 38       0.000279189995
 39      -0.000409087166
 40       0.002013274484
 41      -0.002508613122
 42       0.003665637681
 43       0.003485310495
 44      -0.003659404444
 45       0.003844408077
 46      -0.000123009975
 47       0.000015284956
 48       0.000059208550
 49      -0.000010459645
 50       0.000100820195
 51      -0.002511966415
 52      -0.002200645783
 53       0.002483405547
 54       0.000804829872
 55      -0.001480550411
 56       0.000455430862
 57       0.000284453688
 58      -0.000647439531
 59      -0.000130566646
 60      -0.000382013473
 61       0.000148210157
 62       0.000048455808
 63       0.467078493817
 64       0.608677495341
 65       0.034399718132
 66      -0.014015314937
 67       0.032514274814
 68       0.000159526898
 69      -0.000268690089
 70       0.000230152886
 71      -0.000019183956
 72      -0.000211882369
 73       0.000710276434
 74       0.001234678918
 75      -0.002255781887
 76       0.002615834884
 77       0.000033772499
 78      -0.000043583594
 79      -0.000007587874
 80       0.000006348477
 81      -0.000072643701
 82       0.000111354921
 83      -0.000011492747
 84       0.000097973541
 85      -0.000036247808
 86       0.000542911706
 87       0.000672169149
 88       0.000291354045
 89      -0.000731923459
 90      -0.000053429037
 91      -0.000790496505
 92      -0.000805894129
 93      -0.000812203682
 94      -0.001303377127
 95      -0.001690451430
 96       0.000396569347
 97      -0.003570646931
 98      -0.004026968788
 99      -0.000062058216
100       0.000052286624
101      -0.000087025199
102       0.002156440508
103      -0.002171945881
104       0.001516616002
105       0.000746398338
106      -0.001588658021
107       0.001658234664
108      -0.000008381037
109       0.000018657736
110       0.000021905515
111      -0.000001980720
112       0.000065827139
113       0.000924133094
114      -0.000769689640
115       0.000300259633
116      -0.000085078111
117       0.000680733918
118      -0.000079634946
119      -0.000012343791
120       0.000000468304
121      -0.000005005856
122      -0.000084201709
123       0.000044024230
124       0.000089138658
125      -0.000455023448
126      -0.001851358700
127      -0.003754724385
128      -0.001319268456
129       0.001346294641
130       0.000178089700
131      -0.000433778984
132      -0.002601191079
133      -0.004949693528
134       0.001609856538
135       0.000691071176
136      -0.000928461381
137      -0.000430915170
138      -0.002733930889
139      -0.005354095496
140      -0.000658061989
141      -0.001408480194
142      -0.001248148365
143      -0.000071040377
144      -0.000849075642
145      -0.001034235125
146       0.000085849566
147      -0.000105824464
148       0.000121143855
149       0.000030603385
150       0.000395136313
151       0.000790145826
152      -0.000062842850
153       0.000036227384
154       0.000051716153
155       0.000029080645
156       0.000262219210
157       0.000157178672
158      -0.000082756086
159      -0.000015156708
160       0.000063297673
 Sym=     1a
 Ene= -1.02113571019136E+01
 Spin= Alpha
 Occup= 2.000000
  1      -0.000004697260
  2       0.000054809805
  3      -0.000624171783
  4       0.002629659850
  5      -0.000736549322
  6      -0.000118003609
  7       0.000108887167
  8      -0.000011150379
  9       0.000968888512
 10      -0.000808734501
 11      -0.000145163353
 12      -0.000070181714
 13       0.000244708269
 14      -0.000577047481
 15       0.000033014406
 16       0.000021328113
 17      -0.000029119465
 18      -0.000010575092
 19       0.000008282337
 20      -0.000250676851
 21      -0.000100470207
 22       0.000144980437
 23       0.000069291222
 24      -0.000156407904
 25      -0.000023039738
 26      -0.000045550159
 27       0.000052803900
 28       0.000019153679
 29       0.000004768408
 30      -0.000006004976
 31      -0.000002991166
 32       0.000677787514
 33       0.000790848221
 34       0.000005885677
 35      -0.002745421743
 36       0.009424738188
 37      -0.000376908512
 38       0.000347076744
 39      -0.000187660996
 40       0.003305589915
 41      -0.003115844933
 42       0.001635356386
 43       0.003853983334
 44      -0.003815146100
 45       0.003310355730
 46       0.000020422057
 47      -0.000037706186
 48      -0.000015313477
 49       0.000032838853
 50      -0.000161298272
 51      -0.003760360345
 52       0.000900230525
 53       0.000275582611
 54       0.000308260169
 55      -0.002204528332
 56      -0.000089620132
 57      -0.000335468317
 58       0.000260782982
 59      -0.000043042938
 60      -0.000128075068
 61       0.000435705456
 62       0.000704641950
 63      -0.001302900266
 64      -0.001705780210
 65      -0.000599095777
 66       0.003700575995
 67       0.003890565056
 68      -0.000086358184
 69       0.000070269537
 70      -0.000050379384
 71       0.001633555887
 72      -0.001975959910
 73       0.002302106348
 74       0.001276381310
 75      -0.001887665943
 76       0.000774557808
 77       0.000043707492
 78      -0.000004943744
 79      -0.000027264629
 80      -0.000009361894
 81      -0.000049458813
 82       0.000368085900
 83       0.001030815709
 84      -0.000903216391
 85      -0.000134510948
 86       0.000080832263
 87      -0.000013883510
 88       0.000066170093
 89      -0.000059926681
 90       0.000008772398
 91      -0.000111509384
 92       0.000048537900
 93       0.000014819553
 94      -0.467079428498
 95      -0.608675823041
 96      -0.034422796245
 97       0.014105057701
 98      -0.032566274254
 99       0.000230449331
100      -0.000276412320
101       0.000189222352
102       0.000474768738
103      -0.000434347447
104      -0.000148184691
105       0.002211657586
106      -0.002673494079
107       0.001219944589
108      -0.000056473290
109       0.000039818672
110       0.000014117441
111      -0.000004129031
112       0.000061993131
113       0.000353856136
114       0.000103363212
115      -0.000346166409
116      -0.000023713426
117      -0.000275738265
118      -0.000710717952
119       0.000037514960
120       0.001207195709
121      -0.000107737627
122       0.000463127161
123       0.000187785924
124       0.000882401257
125       0.000072626761
126       0.000848275900
127       0.001053249597
128       0.000114995629
129      -0.000128744202
130       0.000077783209
131      -0.000022822033
132      -0.000206671881
133      -0.000141157128
134      -0.000002882291
135      -0.000071352303
136      -0.000074385384
137      -0.000030265412
138      -0.000410920780
139      -0.000759074461
140       0.000021520704
141      -0.000002569420
142      -0.000082157354
143       0.000455688824
144       0.001845066929
145       0.003750014182
146      -0.000087233722
147       0.000708753148
148      -0.001752421331
149       0.000432843046
150       0.002736941583
151       0.005348019626
152      -0.001737279619
153      -0.000862557079
154       0.000459610687
155       0.000434417623
156       0.002628900086
157       0.004986171726
158       0.000141694142
159       0.001448899838
160       0.001353698604
 Sym=     1a
 Ene= -1.07403109706464E+00
 Spin= Alpha
 Occup= 2.000000
  1      -0.088664432024
  2      -0.208912400283
  3       0.300078979649
  4       0.394657588586
  5       0.122199099063
  6       0.060092393198
  7      -0.031299306735
  8      -0.095566433074
  9       0.045373300857
 10      -0.024708334579
 11      -0.073813371772
 12      -0.000841212793
 13      -0.004927670191
 14      -0.007797182570
 15       0.003195478273
 16      -0.005141748785
 17       0.002764862277
 18       0.001148568431
 19      -0.001170341109
 20       0.006204919213
 21      -0.011971215376
 22       0.006832642988
 23       0.003315905972
 24      -0.000361768594
 25      -0.000226397564
 26       0.002305660616
 27      -0.001232988008
 28      -0.000916476795
 29       0.001161426718
 30      -0.000141907752
 31       0.000377527331
 32      -0.057481041261
 33      -0.121113491080
 34       0.187842915080
 35       0.149153533659
 36       0.027169272190
 37      -0.071713142934
 38       0.034537368989
 39       0.109277554390
 40      -0.019568083653
 41       0.010012772402
 42       0.030239792858
 43       0.003915746164
 44      -0.000833173190
 45       0.001334060478
 46       0.009726273359
 47      -0.014477126554
 48       0.006470098689
 49       0.003843729008
 50      -0.005548681274
 51       0.004770091066
 52      -0.001584974920
 53      -0.001150161082
 54       0.000971552974
 55      -0.007204859692
 56      -0.000439309072
 57      -0.006553819615
 58       0.004573955391
 59       0.002532583419
 60      -0.002395904595
 61       0.000908324117
 62       0.000392297343
 63      -0.008601456404
 64      -0.017828960864
 65       0.026973146085
 66       0.015154577989
 67      -0.009291798765
 68      -0.000250976983
 69      -0.003654219521
 70       0.016507274523
 71      -0.001715498835
 72       0.000858332552
 73       0.003579605034
 74      -0.000555097757
 75       0.000145051937
 76      -0.001875632297
 77       0.001330616615
 78      -0.000341434583
 79      -0.000221249735
 80      -0.000019915591
 81       0.000093549362
 82       0.000340850458
 83      -0.001170759435
 84       0.000964450608
 85       0.000363456650
 86       0.000463685858
 87       0.000680209920
 88      -0.000689420463
 89       0.000106584747
 90       0.000147250939
 91      -0.000158738483
 92      -0.000043713257
 93       0.000057045631
 94      -0.008530055893
 95      -0.017684171475
 96       0.026782971945
 97       0.015260792767
 98      -0.015233449963
 99      -0.012990955971
100       0.010013847509
101       0.003784110078
102      -0.002536475128
103       0.001481030957
104       0.002861052205
105       0.002634886357
106      -0.002913248527
107      -0.000526927377
108      -0.000439659296
109      -0.000716876374
110       0.000517177675
111       0.000307171860
112      -0.000934231220
113       0.000465628464
114      -0.001099157565
115       0.000706951662
116       0.000247378979
117       0.000448640685
118      -0.000349132899
119      -0.000376760151
120       0.000147207991
121       0.000355446146
122      -0.000583114105
123      -0.000085272671
124      -0.000420371094
125       0.005130598175
126       0.005384449678
127       0.001994674344
128       0.000750530363
129      -0.000931095368
130       0.000532388789
131       0.002838832612
132       0.002971084076
133       0.001356304610
134      -0.000333503578
135      -0.000253901260
136       0.000628959543
137       0.003190322798
138       0.003633150352
139       0.001389298012
140       0.000214657920
141       0.000142121721
142       0.000982109109
143       0.005082459748
144       0.005223947990
145       0.002096169025
146      -0.000510368770
147       0.000780761575
148      -0.000838921444
149       0.003079082956
150       0.003564406216
151       0.001455895595
152      -0.000870988735
153       0.000181658809
154       0.000184855665
155       0.002861013653
156       0.003260474382
157       0.001414701900
158      -0.000363355609
159       0.000644850349
160       0.000383966946
 Sym=     1a
 Ene= -7.85771386365655E-01
 Spin= Alpha
 Occup= 2.000000
  1       0.030353958119
  2       0.072241228455
  3      -0.109514637200
  4      -0.140048158429
  5      -0.071216873664
  6       0.003062567637
  7       0.000074315960
  8      -0.002971332647
  9       0.003712868707
 10      -0.000036796338
 11      -0.003960576548
 12       0.006023803587
 13       0.000880827429
 14      -0.004024378045
 15      -0.000176217411
 16       0.000476126051
 17      -0.000387160062
 18      -0.000044934152
 19      -0.000157803007
 20       0.000638922511
 21       0.000541541787
 22      -0.000633794938
 23      -0.000418319500
 24      -0.001212149153
 25      -0.000083292937
 26      -0.000135940159
 27       0.000177028294
 28      -0.000032195401
 29      -0.000011860240
 30       0.000015648570
 31       0.000053370183
 32      -0.043870450442
 33      -0.093794079090
 34       0.148898420692
 35       0.147800705981
 36       0.034831066700
 37       0.069003753397
 38      -0.032926938407
 39      -0.107958651248
 40       0.041251703285
 41      -0.020607496050
 42      -0.063603627467
 43       0.008066793898
 44      -0.005898848601
 45      -0.010378254765
 46      -0.001178911972
 47       0.006116812780
 48      -0.005258357444
 49      -0.000783618410
 50      -0.004108720753
 51      -0.001331304373
 52       0.005097424729
 53      -0.005345822188
 54       0.000193332940
 55      -0.003689921541
 56      -0.001218654918
 57      -0.000419110826
 58       0.001481016500
 59      -0.000222036710
 60       0.001098823571
 61       0.000636762444
 62       0.001604130431
 63      -0.059794324354
 64      -0.127235153824
 65       0.189866193794
 66       0.225654088391
 67       0.016554796269
 68       0.018567484752
 69      -0.022803868942
 70       0.024834863179
 71       0.017340302482
 72      -0.022258975283
 73       0.023351067617
 74       0.000041925405
 75       0.000482471353
 76       0.000493887121
 77       0.001452749705
 78       0.001840395754
 79      -0.002417047684
 80      -0.000280050274
 81      -0.000958444186
 82       0.003214133882
 83       0.005637490967
 84      -0.005893895109
 85      -0.001346128354
 86      -0.001752445679
 87       0.001259973573
 88       0.001823957190
 89      -0.002833973385
 90      -0.000442637320
 91      -0.002638752879
 92      -0.001142145709
 93      -0.001439295497
 94      -0.058052448164
 95      -0.123516433461
 96       0.184704437283
 97       0.217337586337
 98       0.006390883940
 99      -0.023765836304
100       0.024787692568
101      -0.018081395786
102      -0.021835467962
103       0.022708518645
104      -0.016569829080
105      -0.001009363496
106      -0.001357111720
107      -0.006971559861
108      -0.001427148362
109       0.001253822204
110      -0.001060582756
111       0.000238480944
112      -0.002767575089
113      -0.004444575643
114       0.004000561853
115      -0.002773559980
116       0.000098118516
117      -0.005686932137
118       0.002124356499
119       0.000591695349
120      -0.002717186260